/*--------------------------------*- C++ -*----------------------------------*\
| =========                 |                                                 |
| \\      /  F ield         | OpenFOAM: The Open Source CFD Toolbox           |
|  \\    /   O peration     | Version:  2406                                  |
|   \\  /    A nd           | Website:  www.openfoam.com                      |
|    \\/     M anipulation  |                                                 |
\*---------------------------------------------------------------------------*/
FoamFile
{
    version     2.0;
    format      ascii;
    arch        "LSB;label=32;scalar=64";
    class       volScalarField;
    location    "744";
    object      p;
}
// * * * * * * * * * * * * * * * * * * * * * * * * * * * * * * * * * * * * * //

dimensions      [0 2 -2 0 0 0 0];

internalField   nonuniform List<scalar> 
9612
(
3.49309e-07
-4.18549e-05
-0.000195687
-0.000454687
-0.000785591
-0.00116059
-0.00155684
-0.0019558
-0.00234288
-0.00270693
-0.00303938
-0.00333412
-0.0035864
-0.00379316
-0.00395208
-0.0040611
-0.0041193
-0.00412599
-0.00408069
-0.0039819
-0.00382979
-0.00362314
-0.00336113
-0.0030434
-0.00266928
-0.00223662
-0.00174471
-0.00119296
-0.000579609
9.56893e-05
0.00083429
0.0016377
0.00250634
0.00344147
0.00444285
0.00551068
0.00664566
0.00784668
0.00911414
0.0104478
0.0118459
0.0133084
0.0148337
0.0164177
0.0180607
0.0197598
0.0215127
0.0233164
0.0251677
0.0270627
0.0289984
0.03097
0.0329739
0.035005
0.0370582
0.0391284
0.04121
0.0432968
0.0453851
0.0474661
0.049533
0.0515805
0.0536007
0.055587
0.0575335
0.059432
0.0612763
0.0630595
0.0647742
0.0664145
0.0679742
0.0694482
0.0708319
0.0721197
0.0733084
0.0743941
0.0753737
0.0762467
0.0770116
0.0776675
0.078215
0.0786561
0.0789921
0.0792272
0.0793649
0.07941
0.0793679
0.0792457
0.0790512
0.0787928
0.0784806
0.0781258
0.0777416
0.0773427
0.0769466
0.0765735
0.0762464
0.0759924
0.0758427
0.075802
4.29533e-05
2.48002e-07
-0.000134305
-0.000357572
-0.000642278
-0.000965707
-0.0013089
-0.00165593
-0.00199385
-0.00231234
-0.00260345
-0.00286095
-0.00308021
-0.00325778
-0.00339104
-0.00347817
-0.00351744
-0.00350789
-0.0034487
-0.00333878
-0.00317741
-0.00296367
-0.0026968
-0.00237571
-0.00199964
-0.0015672
-0.00107776
-0.000529953
7.78464e-05
0.000746403
0.00147607
0.00226837
0.00312445
0.0040446
0.00502909
0.00607879
0.00719339
0.00837303
0.00961721
0.0109253
0.0122964
0.0137297
0.0152246
0.016777
0.0183864
0.0200511
0.0217678
0.0235344
0.0253474
0.0272027
0.0290976
0.0310275
0.032989
0.034977
0.0369861
0.0390119
0.041048
0.04309
0.0451327
0.047168
0.04919
0.0511929
0.0531698
0.055114
0.0570187
0.0588775
0.0606831
0.0624298
0.0641109
0.06572
0.0672517
0.0687014
0.0700633
0.0713329
0.0725069
0.0735825
0.0745567
0.075428
0.0761953
0.0768585
0.077418
0.0778754
0.0782327
0.0784933
0.078661
0.0787403
0.0787372
0.078658
0.0785103
0.0783026
0.0780443
0.0777464
0.077421
0.0770819
0.0767447
0.076427
0.0761485
0.0759313
0.0758015
0.0757611
0.000197601
0.000134312
-1.18919e-06
-0.000205371
-0.000458044
-0.000741777
-0.00104147
-0.00134399
-0.00163829
-0.00191532
-0.00216781
-0.00238999
-0.00257732
-0.0027264
-0.00283445
-0.0028995
-0.00291983
-0.00289401
-0.00282112
-0.00270021
-0.00252984
-0.00230938
-0.00203816
-0.0017144
-0.00133766
-0.000906627
-0.000419971
0.000123419
0.000723831
0.00138334
0.00210285
0.00288302
0.00372478
0.00462894
0.00559564
0.00662564
0.00771882
0.00887579
0.0100956
0.0113772
0.0127206
0.0141247
0.0155879
0.0171083
0.0186847
0.020315
0.0219962
0.0237249
0.0254993
0.0273164
0.0291713
0.0310613
0.0329808
0.0349258
0.0368929
0.0388761
0.0408697
0.0428688
0.0448672
0.0468597
0.0488395
0.0508003
0.0527365
0.0546412
0.0565072
0.0583288
0.0600991
0.0618126
0.0634627
0.0650436
0.06655
0.0679766
0.0693185
0.0705727
0.0717346
0.0728012
0.0737705
0.0746411
0.0754113
0.0760819
0.0766531
0.077126
0.0775033
0.077788
0.0779838
0.0780953
0.0781281
0.0780886
0.0779839
0.0778222
0.0776125
0.0773651
0.077091
0.0768028
0.0765141
0.0762399
0.075996
0.0758
0.0756711
0.0756119
0.000459317
0.000357978
0.000200751
-4.7919e-06
-0.000245646
-0.000508665
-0.000781876
-0.00105467
-0.00131792
-0.00156394
-0.00178644
-0.00198039
-0.00214158
-0.00226685
-0.00235354
-0.00239967
-0.00240374
-0.002364
-0.00227952
-0.00214908
-0.00197161
-0.00174614
-0.00147165
-0.00114675
-0.000770643
-0.000341979
0.000140013
0.000676864
0.00126978
0.00192006
0.00262866
0.00339598
0.00422336
0.00511158
0.00606097
0.00707212
0.00814528
0.00928037
0.0104769
0.0117344
0.013053
0.0144305
0.0158653
0.0173576
0.0189053
0.0205045
0.0221538
0.0238514
0.0255929
0.027376
0.0291981
0.0310531
0.0329378
0.0348487
0.0367798
0.0387272
0.0406865
0.0426507
0.0446137
0.0465717
0.0485182
0.0504459
0.0523496
0.0542228
0.0560591
0.0578521
0.0595956
0.0612838
0.0629105
0.0644701
0.0659579
0.0673681
0.0686964
0.0699387
0.0710917
0.072153
0.0731197
0.0739907
0.0747646
0.0754417
0.0760227
0.0765088
0.0769023
0.0772063
0.0774242
0.077561
0.0776218
0.0776127
0.0775407
0.0774134
0.0772394
0.077028
0.0767895
0.0765349
0.076276
0.0760254
0.0757962
0.0756017
0.0754543
0.0753606
0.0007957
0.0006444
0.000451526
0.000231209
-1.09307e-05
-0.000265596
-0.000523535
-0.000776481
-0.0010172
-0.00123945
-0.00143803
-0.00160861
-0.00174782
-0.00185272
-0.00192094
-0.00195058
-0.00194025
-0.00188842
-0.00179398
-0.00165571
-0.00147246
-0.00124354
-0.000967154
-0.000642549
-0.000268527
0.000156046
0.000632606
0.00116218
0.00174626
0.0023857
0.00308188
0.00383563
0.00464825
0.00552
0.00645163
0.00744369
0.00849695
0.00961101
0.010785
0.0120193
0.0133132
0.0146659
0.0160758
0.0175412
0.0190603
0.0206318
0.0222539
0.0239219
0.0256344
0.0273882
0.0291792
0.0310043
0.0328589
0.0347388
0.0366409
0.0385581
0.0404861
0.0424203
0.0443552
0.0462847
0.0482028
0.0501034
0.0519807
0.0538291
0.0556417
0.057412
0.0591343
0.0608029
0.062412
0.0639557
0.0654291
0.066827
0.0681456
0.0693803
0.0705281
0.0715861
0.0725521
0.0734248
0.074203
0.0748867
0.0754768
0.0759745
0.076382
0.0767024
0.076939
0.0770966
0.0771801
0.0771954
0.0771491
0.0770485
0.0769015
0.0767167
0.0765031
0.0762706
0.0760293
0.0757895
0.0755618
0.075356
0.0751778
0.0750392
0.00117885
0.000970502
0.000733143
0.000488784
0.000235918
-1.95941e-05
-0.000270868
-0.000511818
-0.00073696
-0.000941549
-0.00112151
-0.00127335
-0.00139437
-0.00148214
-0.0015348
-0.0015505
-0.00152801
-0.00146625
-0.00136342
-0.00121909
-0.001032
-0.000800791
-0.000524332
-0.000201564
0.000168893
0.000587822
0.00105723
0.00157837
0.00215222
0.00277972
0.00346234
0.00420147
0.0049985
0.00585348
0.00676701
0.00773997
0.00877288
0.00986572
0.0110181
0.0122303
0.0135012
0.0148298
0.0162151
0.0176558
0.0191504
0.0206967
0.0222919
0.0239344
0.0256211
0.0273482
0.0291125
0.0309109
0.0327397
0.0345938
0.0364689
0.0383608
0.0402641
0.0421736
0.0440839
0.0459897
0.0478852
0.0497646
0.0516211
0.0534495
0.0552434
0.0569965
0.0587031
0.0603575
0.0619541
0.0634865
0.0649499
0.0663399
0.0676525
0.0688832
0.0700286
0.0710857
0.0720531
0.0729289
0.0737122
0.0744031
0.0750019
0.0755102
0.0759305
0.0762648
0.0765173
0.0766921
0.076794
0.0768289
0.0768027
0.0767224
0.0765953
0.0764292
0.0762322
0.0760128
0.0757796
0.075541
0.0753056
0.0750801
0.0748635
0.0746751
0.00158471
0.00131597
0.00102902
0.000754389
0.000483948
0.00022058
-3.08977e-05
-0.000266338
-0.000481904
-0.000674233
-0.000840426
-0.000977814
-0.00108445
-0.00115858
-0.00119849
-0.00120303
-0.00117084
-0.00110109
-0.000992546
-0.000844075
-0.000654759
-0.000423302
-0.000148646
0.000170549
0.000535664
0.000947858
0.00140838
0.00191879
0.00248097
0.00309589
0.0037643
0.00448789
0.00526799
0.00610525
0.00700041
0.00795425
0.00896722
0.0100393
0.0111709
0.0123616
0.0136101
0.0149165
0.0162795
0.0176977
0.0191691
0.0206924
0.0222647
0.0238837
0.0255472
0.0272517
0.0289931
0.0307692
0.0325754
0.0344071
0.0362608
0.0381313
0.0400138
0.0419036
0.0437949
0.0456822
0.0475597
0.0494224
0.0512638
0.0530776
0.0548582
0.0565993
0.0582954
0.0599402
0.0615284
0.0630542
0.0645127
0.0658994
0.0672097
0.0684391
0.0695849
0.0706444
0.0716153
0.0724959
0.0732854
0.0739837
0.0745916
0.0751101
0.0755415
0.0758884
0.0761544
0.0763434
0.0764604
0.0765104
0.0764997
0.0764343
0.0763211
0.0761672
0.0759798
0.0757662
0.0755337
0.0752892
0.0750394
0.0747885
0.0745301
0.0742904
0.00199239
0.00166259
0.00132376
0.00101505
0.000722387
0.000446069
0.000189138
-4.59445e-05
-0.000256896
-0.000441603
-0.000598268
-0.000725313
-0.000821163
-0.000884832
-0.000915154
-0.000911318
-0.000872289
-0.000796827
-0.000684572
-0.000534447
-0.00034503
-0.000115368
0.000155572
0.000469141
0.000826981
0.00123034
0.00168077
0.00217964
0.00272809
0.00332851
0.00398165
0.00468882
0.00545142
0.00627051
0.0071468
0.0080815
0.009075
0.0101272
0.0112383
0.0124078
0.013636
0.014922
0.016264
0.0176615
0.019113
0.0206152
0.022167
0.0237664
0.0254096
0.0270941
0.0288171
0.0305739
0.0323612
0.0341753
0.0360111
0.0378643
0.0397312
0.0416054
0.0434817
0.0453555
0.0472206
0.0490709
0.0509014
0.0527058
0.0544783
0.0562125
0.0579026
0.0595427
0.0611274
0.0626511
0.0641089
0.0654956
0.0668068
0.0680394
0.0691891
0.0702533
0.0712298
0.0721169
0.072914
0.073621
0.0742382
0.0747667
0.0752087
0.0755671
0.0758448
0.0760457
0.0761748
0.0762369
0.0762376
0.0761827
0.0760786
0.0759316
0.0757483
0.075535
0.0752977
0.0750422
0.0747737
0.0744944
0.0741931
0.0739034
0.00238396
0.00199422
0.00160319
0.00125853
0.000940792
0.000648028
0.000381814
0.000143095
-6.72639e-05
-0.00024826
-0.000399263
-0.00051941
-0.000608014
-0.000664476
-0.000688148
-0.00067866
-0.000635396
-0.000557254
-0.000443655
-0.000293957
-0.00010705
0.000118505
0.000383778
0.000689803
0.00103842
0.00143111
0.00186898
0.00235452
0.00288848
0.00347296
0.00410964
0.00479928
0.0055438
0.00634414
0.00720183
0.00811708
0.00909098
0.0101234
0.0112151
0.0123659
0.0135747
0.0148414
0.016165
0.017544
0.0189767
0.0204612
0.0219957
0.0235782
0.0252053
0.026873
0.0285797
0.0303207
0.0320938
0.0338939
0.0357162
0.0375567
0.0394108
0.0412737
0.0431401
0.0450043
0.0468607
0.0487045
0.0505289
0.0523282
0.0540967
0.0558283
0.0575173
0.0591572
0.0607429
0.0622685
0.0637297
0.0651208
0.0664373
0.0676755
0.0688317
0.0699035
0.0708882
0.0717841
0.0725906
0.0733072
0.0739343
0.0744732
0.074926
0.0752948
0.075583
0.0757944
0.0759335
0.0760049
0.076014
0.0759662
0.0758674
0.0757234
0.0755399
0.0753226
0.0750766
0.0748065
0.0745168
0.0742081
0.0738652
0.0735282
0.00274404
0.00229661
0.00185454
0.00147346
0.00112915
0.000817749
0.000539542
0.000294137
8.11549e-05
-9.94062e-05
-0.000248067
-0.000364529
-0.000448773
-0.000501261
-0.000521426
-0.000508934
-0.00046417
-0.000386036
-0.000273881
-0.000127016
5.49692e-05
0.000274057
0.000531333
0.00082758
0.00116487
0.00154457
0.00196875
0.00243894
0.0029568
0.0035242
0.00414291
0.00481398
0.00554024
0.00632109
0.00715979
0.00805567
0.00901114
0.0100245
0.0110985
0.0122304
0.0134214
0.0146718
0.0159785
0.0173413
0.0187583
0.0202282
0.0217483
0.0233164
0.0249294
0.0265842
0.0282794
0.0300086
0.0317699
0.0335591
0.0353718
0.0372037
0.0390496
0.0409052
0.042765
0.0446247
0.046477
0.0483169
0.0501401
0.0519385
0.0537082
0.0554413
0.0571333
0.0587769
0.0603681
0.0618998
0.0633679
0.0647668
0.0660921
0.0673397
0.0685061
0.069588
0.0705833
0.0714901
0.0723079
0.0730356
0.0736736
0.0742237
0.0746871
0.0750663
0.0753643
0.0755853
0.0757328
0.0758117
0.075827
0.0757839
0.0756875
0.0755435
0.075357
0.0751328
0.0748756
0.0745892
0.0742771
0.073939
0.0735565
0.0731759
0.00305918
0.00255732
0.00206626
0.00164932
0.00127802
0.000946838
0.000654917
0.000400583
0.000182587
-2.43405e-07
-0.000149298
-0.000264949
-0.000347964
-0.000399129
-0.000418792
-0.000406359
-0.000362857
-0.000287471
-0.000179106
-3.80404e-05
0.000136702
0.000346588
0.000593647
0.000877856
0.00120171
0.00156641
0.00197463
0.00242841
0.002928
0.00347706
0.00407669
0.00472871
0.00543586
0.00619739
0.00701713
0.00789353
0.00883093
0.00982614
0.0108828
0.0119989
0.0131747
0.0144092
0.0157015
0.0170513
0.0184554
0.0199129
0.0214219
0.0229782
0.024582
0.026227
0.0279131
0.0296338
0.0313883
0.0331698
0.0349767
0.036803
0.0386445
0.0404971
0.0423543
0.0442119
0.0460644
0.0479059
0.0497312
0.0515326
0.0533071
0.0550453
0.0567444
0.0583961
0.0599968
0.0615387
0.0630172
0.0644278
0.0657651
0.0670258
0.0682052
0.0693
0.0703087
0.0712288
0.0720598
0.0728001
0.0734506
0.0740125
0.0744874
0.0748771
0.0751848
0.0754145
0.0755695
0.0756546
0.0756746
0.0756342
0.0755383
0.0753924
0.0752008
0.0749682
0.0746983
0.0743945
0.0740602
0.0736938
0.0732749
0.0728552
0.00331801
0.00276526
0.00222806
0.00177672
0.00137871
0.00102731
0.000720581
0.000455966
0.000230993
4.35761e-05
-0.000108289
-0.000225716
-0.00031041
-0.000362852
-0.00038453
-0.000374976
-0.000335502
-0.000265361
-0.000163906
-3.12299e-05
0.00013379
0.000332468
0.000566197
0.000835651
0.00114444
0.00149243
0.00188234
0.00231761
0.00279786
0.00332753
0.00390687
0.00453951
0.00522595
0.00596859
0.00676887
0.0076276
0.00854734
0.00952646
0.0105666
0.0116679
0.0128306
0.0140519
0.0153327
0.0166716
0.0180662
0.0195144
0.0210156
0.0225646
0.0241609
0.0258002
0.0274804
0.0291967
0.0309465
0.0327247
0.0345295
0.0363537
0.0381947
0.0400472
0.0419057
0.043765
0.0456215
0.0474674
0.0492977
0.0511067
0.0528894
0.0546378
0.0563471
0.0580111
0.0596237
0.0611797
0.0626728
0.0640988
0.0654512
0.066728
0.067923
0.0690342
0.0700592
0.0709946
0.0718405
0.0725957
0.0732602
0.0738351
0.0743221
0.074723
0.0750407
0.0752792
0.0754413
0.0755322
0.0755557
0.0755169
0.0754204
0.0752712
0.0750733
0.0748311
0.0745481
0.0742271
0.073871
0.0734784
0.0730264
0.0725717
0.00351025
0.00291075
0.00233067
0.00184684
0.00142327
0.00105185
0.000729863
0.00045386
0.000220454
2.66524e-05
-0.000130047
-0.000251318
-0.000339851
-0.000396312
-0.000422741
-0.000418837
-0.00038606
-0.000323652
-0.00023212
-0.000110493
4.19761e-05
0.000227131
0.000444835
0.000697827
0.000988638
0.0013179
0.00168819
0.00210283
0.00256247
0.00307134
0.00362948
0.00424191
0.00490809
0.00563128
0.00641316
0.00725457
0.00815745
0.00912149
0.010148
0.0112367
0.0123878
0.0135996
0.0148721
0.0162022
0.0175902
0.0190336
0.0205288
0.0220745
0.0236671
0.0253043
0.026982
0.0286974
0.0304462
0.0322252
0.0340295
0.0358563
0.0376996
0.0395545
0.0414178
0.0432832
0.045146
0.0469998
0.0488396
0.0506592
0.0524531
0.0542146
0.0559383
0.0576175
0.0592462
0.0608197
0.0623303
0.0637747
0.0651462
0.0664417
0.0676559
0.0687861
0.0698296
0.0707833
0.0716461
0.0724181
0.0730982
0.0736875
0.0741876
0.0746006
0.0749288
0.075176
0.0753454
0.0754416
0.0754684
0.075431
0.0753333
0.0751799
0.0749753
0.0747233
0.074427
0.0740894
0.0737134
0.0732969
0.0728153
0.07233
0.00362743
0.00298531
0.00236602
0.00185205
0.00140431
0.00101354
0.000676379
0.000388368
0.00014551
-5.58915e-05
-0.000219226
-0.000346733
-0.000441324
-0.000504227
-0.00053774
-0.000542032
-0.000518588
-0.000467018
-0.000387591
-0.000279394
-0.000142089
2.63144e-05
0.000226028
0.000460738
0.000730661
0.00103929
0.0013884
0.00178097
0.00221846
0.00270537
0.0032419
0.00383303
0.00447951
0.00518311
0.00594721
0.00677246
0.00766025
0.0086105
0.00962564
0.0107047
0.0118464
0.0130517
0.0143181
0.0156442
0.0170292
0.0184701
0.0199643
0.0215099
0.0231032
0.0247409
0.0264202
0.0281373
0.0298892
0.0316718
0.0334803
0.0353114
0.0371604
0.039022
0.0408924
0.0427666
0.0446384
0.0465036
0.0483559
0.0501885
0.0519973
0.0537752
0.0555162
0.0572134
0.0588619
0.0604555
0.0619871
0.0634531
0.0648464
0.0661639
0.0674003
0.0685523
0.0696164
0.0705911
0.0714734
0.0722638
0.0729613
0.0735669
0.0740814
0.0745073
0.0748468
0.0751035
0.0752805
0.0753822
0.0754124
0.0753758
0.0752766
0.0751195
0.0749085
0.074647
0.0743385
0.0739854
0.073591
0.0731529
0.0726457
0.0721338
0.00366194
0.00298153
0.00232686
0.00178537
0.0013153
0.000906325
0.000554236
0.00025407
1.05688e-06
-0.00020916
-0.000380387
-0.00051574
-0.000618388
-0.00068999
-0.000732955
-0.000747946
-0.00073637
-0.000698225
-0.000633534
-0.000541547
-0.000421842
-0.000272666
-9.29767e-05
0.000120337
0.000368093
0.000653894
0.000979786
0.00134887
0.00176317
0.00222721
0.00274218
0.00331148
0.00393772
0.0046229
0.00537023
0.00618016
0.00705436
0.00799412
0.00899964
0.0100713
0.0112077
0.0124093
0.0136738
0.0149997
0.0163859
0.0178279
0.0193251
0.0208734
0.0224712
0.0241137
0.0257985
0.0275215
0.0292797
0.0310682
0.032884
0.0347222
0.0365801
0.0384513
0.0403319
0.0422173
0.0441015
0.0459801
0.047847
0.0496966
0.0515224
0.0533189
0.0550802
0.0567988
0.0584694
0.0600857
0.0616417
0.0631321
0.0645503
0.0658925
0.0671537
0.0683299
0.0694177
0.0704152
0.0713194
0.0721302
0.0728468
0.07347
0.0740006
0.0744405
0.0747923
0.0750592
0.0752443
0.0753519
0.0753859
0.0753509
0.0752511
0.0750905
0.0748733
0.0746031
0.0742832
0.0739161
0.073505
0.073048
0.0725185
0.071984
0.0036068
0.0028931
0.00220706
0.00164086
0.00115037
0.000724424
0.00035824
4.59996e-05
-0.000217637
-0.000437704
-0.000618256
-0.000763086
-0.000875509
-0.000957756
-0.00101233
-0.00104031
-0.00104293
-0.00102053
-0.000973144
-0.000899698
-0.000800406
-0.000672654
-0.000514829
-0.000325797
-0.000101636
0.000159644
0.000460254
0.000804863
0.00119519
0.0016354
0.00212789
0.00267587
0.00328232
0.00395034
0.00468149
0.00547799
0.00634072
0.00727196
0.0082713
0.00933889
0.0104741
0.0116758
0.0129427
0.0142718
0.0156626
0.0171108
0.0186154
0.0201714
0.0217771
0.0234282
0.0251217
0.0268539
0.0286214
0.0304198
0.0322462
0.0340952
0.0359637
0.0378464
0.0397399
0.0416389
0.0435382
0.0454328
0.047317
0.049185
0.0510305
0.052848
0.0546313
0.056374
0.0580693
0.0597112
0.0612937
0.0628109
0.0642568
0.0656266
0.0669146
0.0681177
0.0692319
0.0702538
0.0711824
0.0720158
0.0727532
0.0733957
0.0739436
0.074399
0.0747642
0.0750424
0.0752365
0.0753509
0.0753895
0.0753564
0.0752559
0.0750925
0.0748701
0.0745924
0.0742625
0.0738836
0.0734587
0.0729855
0.072437
0.0718839
0.00345677
0.00271434
0.00200124
0.00141353
0.000904789
0.000463233
8.36784e-05
-0.000240224
-0.000514712
-0.000745078
-0.000935853
-0.00109148
-0.00121537
-0.00131014
-0.0013785
-0.00142167
-0.00144082
-0.00143646
-0.00140891
-0.00135655
-0.00127934
-0.00117542
-0.00104227
-0.000878325
-0.000680395
-0.000445426
-0.000170815
0.000147928
0.00051339
0.00092952
0.00139907
0.00192665
0.00251404
0.00316528
0.00388232
0.0046675
0.00552189
0.0064474
0.00744354
0.0085109
0.00964853
0.0108546
0.0121283
0.0134662
0.0148663
0.0163254
0.0178411
0.0194093
0.0210271
0.022691
0.0243971
0.0261423
0.0279225
0.0297338
0.0315731
0.0334354
0.0353174
0.0372147
0.0391232
0.0410374
0.0429536
0.0448658
0.0467686
0.0486569
0.0505244
0.0523651
0.0541726
0.0559407
0.0576627
0.0593329
0.0609438
0.0624903
0.063966
0.0653655
0.0666833
0.0679153
0.0690575
0.070107
0.0710615
0.071919
0.0726794
0.0733427
0.0739093
0.0743816
0.0747613
0.0750516
0.0752557
0.0753777
0.0754215
0.0753913
0.0752917
0.0751266
0.0749002
0.0746165
0.0742786
0.0738893
0.0734519
0.0729653
0.0724014
0.0718329
0.00320803
0.00244107
0.00170493
0.00109869
0.000574144
0.000118828
-0.000273191
-0.000608449
-0.000893684
-0.00113489
-0.00133684
-0.00150445
-0.00164146
-0.00175037
-0.00183419
-0.00189444
-0.00193237
-0.00194825
-0.0019423
-0.00191337
-0.00186065
-0.00178229
-0.00167604
-0.00153915
-0.00136889
-0.00116155
-0.000913936
-0.000622337
-0.000282438
0.000109425
0.000556596
0.00106378
0.00163356
0.00226947
0.00297423
0.00375033
0.00459975
0.00552292
0.00652036
0.00759202
0.00873668
0.0099528
0.0112378
0.0125892
0.0140043
0.0154788
0.0170105
0.0185954
0.0202301
0.0219107
0.0236336
0.025395
0.0271915
0.029019
0.0308737
0.0327516
0.0346497
0.036563
0.0384879
0.04042
0.0423543
0.0442859
0.0462094
0.0481194
0.0500101
0.051875
0.0537081
0.0555031
0.0572537
0.0589533
0.0605948
0.0621725
0.0636797
0.0651106
0.0664601
0.0677232
0.0688957
0.0699743
0.0709563
0.0718402
0.0726248
0.0733104
0.0738975
0.0743877
0.0747831
0.0750868
0.0753021
0.0754328
0.0754826
0.0754563
0.0753583
0.0751927
0.074964
0.0746757
0.0743308
0.0739335
0.0734871
0.0729897
0.0724133
0.0718324
0.0028564
0.00206958
0.0013146
0.000693017
0.000154982
-0.000312376
-0.000715589
-0.00106176
-0.00135783
-0.00161009
-0.00182418
-0.00200467
-0.00215553
-0.00228006
-0.00238126
-0.00246035
-0.00251872
-0.00255696
-0.00257483
-0.0025711
-0.00254504
-0.00249426
-0.0024162
-0.0023081
-0.0021669
-0.00198835
-0.00176904
-0.00150454
-0.00119048
-0.000822975
-0.00039744
9.01067e-05
0.000643562
0.00126644
0.00196161
0.00273178
0.00357866
0.00450355
0.00550705
0.00658795
0.00774509
0.0089762
0.0102786
0.011649
0.0130841
0.01458
0.0161335
0.0177401
0.0193963
0.0210978
0.0228416
0.0246231
0.0264391
0.0282858
0.0301593
0.0320555
0.0339713
0.0359022
0.0378452
0.0397956
0.0417493
0.0437014
0.0456466
0.0475789
0.0494927
0.0513828
0.0532426
0.0550658
0.0568458
0.0585759
0.0602494
0.0618595
0.0634
0.0648643
0.066247
0.0675429
0.0687472
0.0698567
0.0708682
0.0717796
0.0725899
0.0732992
0.0739078
0.0744171
0.0748297
0.0751479
0.0753752
0.0755157
0.0755732
0.0755522
0.075457
0.0752922
0.0750618
0.0747704
0.0744214
0.074018
0.0735638
0.073058
0.072472
0.0718815
0.00239832
0.00159695
0.000827751
0.000193846
-0.000355309
-0.00083298
-0.00124604
-0.00160229
-0.00190902
-0.00217278
-0.00239917
-0.00259329
-0.00275954
-0.00290127
-0.00302103
-0.00312084
-0.00320142
-0.00326361
-0.00330701
-0.00333034
-0.00333242
-0.00331076
-0.00326258
-0.00318475
-0.00307358
-0.00292466
-0.00273427
-0.00249734
-0.0022092
-0.0018652
-0.00146078
-0.000991506
-0.000452913
0.000159063
0.000847219
0.00161504
0.00246423
0.00339568
0.00440994
0.00550603
0.00668219
0.00793512
0.00926118
0.0106568
0.0121182
0.0136409
0.0152211
0.0168548
0.0185372
0.0202649
0.0220337
0.0238395
0.0256784
0.0275474
0.0294415
0.0313579
0.033293
0.0352428
0.0372047
0.039175
0.0411495
0.0431226
0.0450893
0.0470446
0.0489827
0.0508982
0.0527845
0.0546359
0.0564455
0.0582066
0.0599125
0.0615563
0.0631307
0.0646297
0.0660468
0.0673768
0.0686145
0.069756
0.0707981
0.0717385
0.0725761
0.0733103
0.0739415
0.0744714
0.0749019
0.0752355
0.0754759
0.0756269
0.0756929
0.0756781
0.075587
0.0754242
0.0751944
0.0749015
0.0745496
0.0741423
0.0736835
0.0731716
0.0725791
0.0719828
0.00183368
0.00102172
0.000242089
-0.000400709
-0.00095837
-0.00144467
-0.00186653
-0.00223207
-0.00254883
-0.00282386
-0.00306314
-0.00327189
-0.00345429
-0.00361421
-0.00375388
-0.00387543
-0.00398012
-0.00406777
-0.00413821
-0.0041902
-0.00422195
-0.00423078
-0.00421365
-0.00416712
-0.00408675
-0.00396837
-0.00380689
-0.00359744
-0.00333488
-0.00301383
-0.00262916
-0.00217614
-0.00164992
-0.00104636
-0.000361606
0.000407642
0.00126324
0.00220679
0.00323793
0.00435533
0.00555699
0.00683865
0.00819569
0.00962381
0.0111177
0.0126731
0.0142869
0.0159533
0.0176669
0.0194253
0.0212237
0.0230577
0.024923
0.0268179
0.0287359
0.0306744
0.0326297
0.0345997
0.0365813
0.0385718
0.0405666
0.0425604
0.044549
0.0465269
0.0484882
0.0504284
0.0523408
0.0542198
0.056059
0.0578514
0.05959
0.0612675
0.0628768
0.064411
0.0658635
0.0672282
0.0685002
0.0696746
0.0707485
0.0717189
0.0725844
0.0733445
0.0739995
0.0745505
0.0749995
0.0753497
0.0756044
0.075767
0.0758425
0.0758349
0.0757491
0.0755898
0.0753618
0.0750693
0.0747165
0.0743069
0.0738451
0.0733306
0.0727341
0.0721334
0.00116032
0.000342494
-0.000443345
-0.00109201
-0.00165562
-0.00214862
-0.00257794
-0.00295204
-0.0032786
-0.00356489
-0.00381701
-0.00404094
-0.00424059
-0.00441924
-0.00458009
-0.00472464
-0.00485433
-0.00496888
-0.00506772
-0.00514953
-0.00521218
-0.00525265
-0.00526745
-0.00525285
-0.0052041
-0.00511614
-0.00498379
-0.00480157
-0.00456354
-0.00426412
-0.00389799
-0.00345948
-0.0029433
-0.00234464
-0.00165946
-0.000884555
-1.72311e-05
0.000944089
0.0019992
0.00314547
0.00438101
0.00569977
0.00709601
0.00856365
0.0100969
0.011692
0.0133455
0.0150512
0.0168015
0.0185952
0.0204285
0.0222943
0.0241893
0.0261135
0.0280586
0.0300212
0.0319975
0.0339872
0.035989
0.0379999
0.0400156
0.0420302
0.0440402
0.0460394
0.0480228
0.0499859
0.0519232
0.0538289
0.0556962
0.0575186
0.0592889
0.061
0.0626439
0.0642133
0.0657014
0.0671016
0.0684083
0.0696164
0.0707226
0.0717237
0.0726177
0.0734042
0.0740834
0.0746563
0.0751249
0.0754924
0.0757618
0.0759374
0.0760229
0.0760234
0.0759443
0.0757902
0.0755658
0.0752749
0.0749228
0.0745136
0.0740513
0.0735353
0.0729373
0.0723352
0.00037812
-0.000440733
-0.00122837
-0.00187997
-0.0024474
-0.00294518
-0.00338054
-0.00376213
-0.00409807
-0.00439566
-0.00466124
-0.00490004
-0.00511685
-0.00531548
-0.0054985
-0.0056674
-0.00582298
-0.00596531
-0.00609374
-0.00620624
-0.00630071
-0.00637348
-0.00642099
-0.00643863
-0.00642143
-0.00636381
-0.00626006
-0.00610417
-0.00588988
-0.00561046
-0.00526058
-0.00483372
-0.00432452
-0.00372751
-0.00303823
-0.00225279
-0.00136761
-0.000381431
0.00070517
0.00188862
0.00316707
0.00453234
0.00597662
0.00749221
0.00907157
0.0107114
0.0124131
0.0141647
0.0159563
0.0177908
0.0196651
0.0215674
0.0234951
0.0254525
0.0274297
0.0294161
0.0314132
0.0334225
0.0354438
0.0374751
0.0395116
0.0415462
0.0435762
0.0455955
0.0475993
0.049583
0.0515423
0.0534718
0.0553654
0.0572165
0.0590174
0.060761
0.0624386
0.0640428
0.0655663
0.0670019
0.0683432
0.0695853
0.0707239
0.0717558
0.0726787
0.0734921
0.0741956
0.074791
0.0752797
0.0756645
0.0759491
0.0761376
0.0762348
0.0762453
0.0761738
0.0760253
0.0758051
0.0755185
0.0751691
0.074761
0.0743
0.0737854
0.0731893
0.0725887
-0.000510789
-0.00132731
-0.00211329
-0.00276475
-0.00333351
-0.0038341
-0.00427401
-0.00466206
-0.00500679
-0.00531529
-0.00559412
-0.00584846
-0.00608356
-0.0063026
-0.00650788
-0.00670135
-0.00688397
-0.00705507
-0.00721361
-0.00735742
-0.0074841
-0.00758974
-0.00767011
-0.00772011
-0.00773427
-0.00770651
-0.00763037
-0.00749961
-0.00730701
-0.0070456
-0.00670945
-0.00629191
-0.00578677
-0.0051875
-0.00448923
-0.00368808
-0.00277901
-0.00176009
-0.000633452
0.000596023
0.00192813
0.00335048
0.00485358
0.00642561
0.00805837
0.0097463
0.0115115
0.013315
0.0151495
0.0170304
0.0189522
0.0208957
0.0228553
0.0248492
0.0268705
0.0288799
0.0308973
0.0329235
0.0349641
0.0370156
0.0390732
0.0411262
0.0431749
0.0452122
0.047233
0.0492338
0.0512119
0.0531622
0.0550783
0.0569548
0.0587842
0.0605586
0.0622687
0.0639067
0.0654647
0.0669348
0.0683104
0.0695859
0.0707566
0.071819
0.0727708
0.073611
0.0743392
0.0749565
0.0754651
0.0758682
0.0761688
0.0763709
0.0764795
0.0764999
0.0764365
0.0762952
0.0760809
0.0757989
0.0754542
0.0750508
0.074593
0.0740807
0.0734874
0.0728902
-0.001506
-0.00231618
-0.00309654
-0.00374484
-0.0043125
-0.00481426
-0.0052575
-0.00565113
-0.0060038
-0.0063227
-0.00661464
-0.00688498
-0.007138
-0.00737741
-0.00760601
-0.00782484
-0.00803471
-0.00823486
-0.00842392
-0.00859973
-0.00875877
-0.00889733
-0.00901029
-0.00909227
-0.00913718
-0.00913828
-0.00908855
-0.00898109
-0.00880835
-0.00856288
-0.00823752
-0.00782587
-0.0073207
-0.00671504
-0.00600327
-0.00518078
-0.00424126
-0.00318119
-0.00200465
-0.000719463
0.000679586
0.0021714
0.0037487
0.00538581
0.00707728
0.0088121
0.0106658
0.0125331
0.0144047
0.0163329
0.0183077
0.0202922
0.022275
0.024316
0.0264054
0.0284335
0.0304662
0.0325041
0.0345661
0.0366387
0.0387192
0.040789
0.0428549
0.0449072
0.0469407
0.048954
0.0509461
0.0529123
0.0548476
0.056746
0.0586006
0.0604025
0.0621429
0.0638128
0.0654037
0.0669071
0.0683159
0.0696238
0.0708259
0.071918
0.0728978
0.073764
0.0745165
0.075156
0.0756845
0.0761051
0.0764211
0.0766375
0.0767585
0.076789
0.0767348
0.0766013
0.0763944
0.0761191
0.0757793
0.0753806
0.0749287
0.0744226
0.0738351
0.0732427
-0.00260651
-0.00340554
-0.00417635
-0.00481884
-0.00538298
-0.0058837
-0.00632915
-0.00672724
-0.00708727
-0.00741606
-0.0077205
-0.00800652
-0.00827788
-0.00853819
-0.00879005
-0.00903439
-0.00927165
-0.00950108
-0.00972104
-0.0099287
-0.01012
-0.0102911
-0.0104364
-0.0105495
-0.0106241
-0.0106526
-0.0106275
-0.0105411
-0.0103856
-0.0101526
-0.0098347
-0.00942577
-0.0089168
-0.00830154
-0.00757187
-0.00672293
-0.00574541
-0.00463342
-0.00339425
-0.00204425
-0.000558014
0.00101662
0.00269008
0.00440035
0.00614608
0.00787538
0.00981212
0.0117887
0.0137164
0.0157099
0.0177573
0.0198009
0.0218249
0.0239585
0.0261111
0.0281026
0.0301315
0.0321707
0.0342618
0.0363568
0.0384689
0.0405523
0.0426361
0.0447014
0.046743
0.0487624
0.0507615
0.0527367
0.0546852
0.0566004
0.0584759
0.0603026
0.0620702
0.0637695
0.0653912
0.066926
0.0683661
0.069705
0.0709368
0.0720575
0.0730646
0.0739557
0.0747311
0.0753918
0.0759396
0.0763775
0.076709
0.0769389
0.0770719
0.0771132
0.077069
0.0769448
0.0767453
0.0764773
0.0761451
0.0757536
0.0753083
0.0748094
0.0742307
0.0736466
-0.00380773
-0.00459172
-0.00535021
-0.0059837
-0.00654252
-0.00704063
-0.00748637
-0.00788831
-0.00825462
-0.00859308
-0.00890981
-0.00921072
-0.00950033
-0.00978132
-0.0100564
-0.0103261
-0.010591
-0.0108499
-0.0111003
-0.0113394
-0.0115628
-0.0117659
-0.0119425
-0.0120855
-0.0121883
-0.0122423
-0.0122394
-0.0121714
-0.01203
-0.011806
-0.0114918
-0.0110813
-0.0105656
-0.00993649
-0.00918532
-0.00830468
-0.00728271
-0.00610459
-0.00478481
-0.00336816
-0.00176782
-0.000121402
0.00163401
0.00344641
0.00527443
0.00687111
0.00881342
0.0109246
0.0129719
0.0151338
0.0173662
0.019584
0.0217153
0.0239472
0.0260756
0.0279146
0.0299549
0.0320025
0.0340923
0.0361861
0.0383452
0.0404322
0.0425388
0.0446164
0.0466592
0.048677
0.0506744
0.0526511
0.0546046
0.0565312
0.0584226
0.0602696
0.0620606
0.063786
0.0654356
0.0669993
0.0684683
0.069836
0.0710955
0.0722427
0.0732748
0.0741895
0.0749868
0.075667
0.0762328
0.0766873
0.0770335
0.0772768
0.0774216
0.0774741
0.07744
0.0773248
0.0771343
0.0768736
0.0765493
0.0761667
0.0757303
0.0752403
0.0746709
0.0740976
-0.00510633
-0.00587212
-0.0066152
-0.007237
-0.00778844
-0.00828262
-0.00872687
-0.00913146
-0.00950298
-0.00985032
-0.0101794
-0.0104953
-0.0108025
-0.0111039
-0.0114015
-0.0116967
-0.0119887
-0.0122761
-0.0125567
-0.0128268
-0.0130815
-0.0133151
-0.0135219
-0.0136933
-0.0138222
-0.0138994
-0.0139158
-0.0138629
-0.0137315
-0.0135126
-0.0131983
-0.0127818
-0.0122553
-0.0116103
-0.010836