/*--------------------------------*- C++ -*----------------------------------*\
| =========                 |                                                 |
| \\      /  F ield         | OpenFOAM: The Open Source CFD Toolbox           |
|  \\    /   O peration     | Version:  2406                                  |
|   \\  /    A nd           | Website:  www.openfoam.com                      |
|    \\/     M anipulation  |                                                 |
\*---------------------------------------------------------------------------*/
FoamFile
{
    version     2.0;
    format      ascii;
    arch        "LSB;label=32;scalar=64";
    class       surfaceScalarField;
    location    "744";
    object      phi;
}
// * * * * * * * * * * * * * * * * * * * * * * * * * * * * * * * * * * * * * //

dimensions      [0 3 -1 0 0 0 0];

oriented        oriented;

internalField   nonuniform List<scalar> 
19452
(
3.08478e-08
-3.11271e-08
7.26841e-08
-4.18335e-08
9.62911e-08
-2.35983e-08
8.73114e-08
8.98785e-09
4.01656e-08
4.71513e-08
-4.60511e-08
8.62196e-08
-1.69758e-07
1.23708e-07
-3.28145e-07
1.58387e-07
-5.17904e-07
1.89757e-07
-7.35589e-07
2.17684e-07
-9.77867e-07
2.42278e-07
-1.24167e-06
2.63805e-07
-1.52411e-06
2.82438e-07
-1.82275e-06
2.98639e-07
-2.1352e-06
3.1245e-07
-2.45965e-06
3.2444e-07
-2.7943e-06
3.34652e-07
-3.13761e-06
3.4331e-07
-3.48827e-06
3.50659e-07
-3.84498e-06
3.56713e-07
-4.20693e-06
3.61942e-07
-4.57286e-06
3.65931e-07
-4.94211e-06
3.69245e-07
-5.31362e-06
3.71518e-07
-5.68648e-06
3.72851e-07
-6.05984e-06
3.73367e-07
-6.43312e-06
3.73269e-07
-6.8051e-06
3.71982e-07
-7.1751e-06
3.69997e-07
-7.54195e-06
3.66856e-07
-7.9047e-06
3.62744e-07
-8.2626e-06
3.57903e-07
-8.61433e-06
3.51722e-07
-8.95907e-06
3.4474e-07
-9.296e-06
3.36926e-07
-9.6236e-06
3.276e-07
-9.94099e-06
3.17394e-07
-1.0247e-05
3.05974e-07
-1.05403e-05
2.93312e-07
-1.08202e-05
2.79966e-07
-1.10859e-05
2.65601e-07
-1.13362e-05
2.50371e-07
-1.157e-05
2.33734e-07
-1.17866e-05
2.16659e-07
-1.19847e-05
1.98056e-07
-1.21636e-05
1.78954e-07
-1.23225e-05
1.58857e-07
-1.24604e-05
1.37932e-07
-1.25766e-05
1.16217e-07
-1.26706e-05
9.39981e-08
-1.27412e-05
7.05905e-08
-1.27882e-05
4.69971e-08
-1.28108e-05
2.25367e-08
-1.28083e-05
-2.48644e-09
-1.27803e-05
-2.80122e-08
-1.27265e-05
-5.38162e-08
-1.26461e-05
-8.03774e-08
-1.25395e-05
-1.06571e-07
-1.2406e-05
-1.33467e-07
-1.22461e-05
-1.59938e-07
-1.20596e-05
-1.86501e-07
-1.18467e-05
-2.12865e-07
-1.16075e-05
-2.39286e-07
-1.13424e-05
-2.65001e-07
-1.10526e-05
-2.89886e-07
-1.07384e-05
-3.14164e-07
-1.04015e-05
-3.36913e-07
-1.00427e-05
-3.58738e-07
-9.66325e-06
-3.79501e-07
-9.2649e-06
-3.98346e-07
-8.8491e-06
-4.15804e-07
-8.41772e-06
-4.31383e-07
-7.97305e-06
-4.4467e-07
-7.517e-06
-4.56042e-07
-7.05227e-06
-4.6473e-07
-6.58098e-06
-4.71298e-07
-6.10559e-06
-4.75383e-07
-5.62884e-06
-4.7675e-07
-5.15361e-06
-4.75238e-07
-4.68232e-06
-4.71284e-07
-4.21808e-06
-4.64242e-07
-3.76338e-06
-4.54706e-07
-3.32113e-06
-4.42245e-07
-2.89411e-06
-4.27025e-07
-2.48511e-06
-4.08995e-07
-2.09694e-06
-3.88171e-07
-1.73212e-06
-3.64817e-07
-1.39349e-06
-3.38633e-07
-1.08354e-06
-3.09947e-07
-8.04917e-07
-2.78626e-07
-5.6006e-07
-2.44857e-07
-3.51349e-07
-2.08711e-07
-1.80972e-07
-1.70378e-07
-5.07507e-08
-1.30221e-07
3.81437e-08
-8.88947e-08
8.57772e-08
-4.76337e-08
9.45319e-08
-8.75503e-09
7.10608e-08
2.34709e-08
3.01075e-08
4.0953e-08
3.01074e-08
4.18902e-08
-7.30248e-08
8.32116e-08
-8.31516e-08
7.17368e-08
-1.21129e-08
-2.02578e-08
1.00993e-07
-2.05809e-07
2.3271e-07
-4.88595e-07
3.69011e-07
-8.66588e-07
5.01702e-07
-1.33447e-06
6.26273e-07
-1.8852e-06
7.40484e-07
-2.511e-06
8.43478e-07
-3.20399e-06
9.35263e-07
-3.95637e-06
1.01619e-06
-4.76126e-06
1.08732e-06
-5.61163e-06
1.14901e-06
-6.50192e-06
1.20274e-06
-7.42626e-06
1.24878e-06
-8.38009e-06
1.28847e-06
-9.35896e-06
1.32218e-06
-1.03591e-05
1.35075e-06
-1.13769e-05
1.37455e-06
-1.2409e-05
1.39409e-06
-1.34527e-05
1.40963e-06
-1.45049e-05
1.4214e-06
-1.55629e-05
1.42948e-06
-1.66243e-05
1.43425e-06
-1.76864e-05
1.43548e-06
-1.87463e-05
1.43321e-06
-1.98014e-05
1.42708e-06
-2.08492e-05
1.41779e-06
-2.18868e-05
1.40445e-06
-2.29115e-05
1.38748e-06
-2.39205e-05
1.36688e-06
-2.49107e-05
1.34186e-06
-2.5879e-05
1.31306e-06
-2.68228e-05
1.28073e-06
-2.77389e-05
1.24369e-06
-2.86244e-05
1.2029e-06
-2.94761e-05
1.15763e-06
-3.02915e-05
1.10875e-06
-3.10674e-05
1.05584e-06
-3.18013e-05
9.99518e-07
-3.24896e-05
9.38719e-07
-3.3131e-05
8.75048e-07
-3.37224e-05
8.0809e-07
-3.4261e-05
7.36613e-07
-3.47441e-05
6.62066e-07
-3.51701e-05
5.84916e-07
-3.55368e-05
5.04574e-07
-3.58424e-05
4.21883e-07
-3.60842e-05
3.35718e-07
-3.62607e-05
2.47106e-07
-3.63697e-05
1.56032e-07
-3.64107e-05
6.35234e-08
-3.63818e-05
-3.136e-08
-3.6282e-05
-1.27817e-07
-3.61096e-05
-2.26266e-07
-3.58644e-05
-3.25559e-07
-3.5545e-05
-4.25927e-07
-3.5153e-05
-5.25531e-07
-3.46865e-05
-6.26403e-07
-3.4147e-05
-7.26056e-07
-3.35346e-05
-8.25242e-07
-3.28511e-05
-9.2279e-07
-3.20973e-05
-1.01875e-06
-3.12757e-05
-1.11156e-06
-3.03883e-05
-1.2015e-06
-2.94385e-05
-1.28678e-06
-2.84291e-05
-1.36813e-06
-2.7364e-05
-1.44461e-06
-2.62476e-05
-1.5147e-06
-2.50848e-05
-1.57865e-06
-2.38804e-05
-1.63577e-06
-2.26402e-05
-1.68487e-06
-2.13698e-05
-1.72639e-06
-2.00757e-05
-1.75892e-06
-1.87645e-05
-1.78242e-06
-1.74435e-05
-1.79643e-06
-1.61193e-05
-1.80095e-06
-1.47991e-05
-1.79539e-06
-1.34908e-05
-1.77966e-06
-1.22014e-05
-1.7536e-06
-1.09388e-05
-1.71729e-06
-9.71051e-06
-1.67055e-06
-8.5239e-06
-1.61363e-06
-7.38654e-06
-1.54636e-06
-6.3054e-06
-1.46931e-06
-5.28824e-06
-1.38199e-06
-4.34152e-06
-1.28535e-06
-3.47247e-06
-1.17899e-06
-2.68726e-06
-1.06384e-06
-1.99208e-06
-9.40033e-07
-1.39261e-06
-8.08183e-07
-8.9338e-07
-6.69612e-07
-4.97898e-07
-5.25703e-07
-2.07546e-07
-3.79247e-07
-2.04295e-08
-2.34751e-07
7.06578e-08
-9.98428e-08
8.13955e-08
1.27327e-08
4.07214e-08
8.16266e-08
7.08287e-08
2.37326e-08
-9.6766e-08
1.17096e-08
-7.1134e-08
-9.02043e-08
8.98049e-08
-3.13127e-07
3.23923e-07
-6.72943e-07
5.92533e-07
-1.17486e-06
8.70936e-07
-1.81703e-06
1.14387e-06
-2.59292e-06
1.40215e-06
-3.49349e-06
1.64106e-06
-4.50825e-06
1.85824e-06
-5.62622e-06
2.05323e-06
-6.83627e-06
2.22624e-06
-8.12818e-06
2.37922e-06
-9.49196e-06
2.51279e-06
-1.09187e-05
2.62947e-06
-1.23999e-05
2.72998e-06
-1.3928e-05
2.8166e-06
-1.54961e-05
2.8903e-06
-1.70982e-05
2.95284e-06
-1.87282e-05
3.00451e-06
-2.03806e-05
3.04648e-06
-2.20509e-05
3.0799e-06
-2.37341e-05
3.10465e-06
-2.54257e-05
3.12107e-06
-2.71212e-05
3.12979e-06
-2.88158e-05
3.13004e-06
-3.05058e-05
3.12316e-06
-3.21866e-05
3.10796e-06
-3.38538e-05
3.08497e-06
-3.55032e-05
3.05377e-06
-3.71293e-05
3.0136e-06
-3.87273e-05
2.96486e-06
-4.02943e-05
2.90891e-06
-4.1824e-05
2.8427e-06
-4.33118e-05
2.76853e-06
-4.47537e-05
2.68565e-06
-4.61443e-05
2.59352e-06
-4.74799e-05
2.49321e-06
-4.87554e-05
2.38425e-06
-4.99666e-05
2.26698e-06
-5.11086e-05
2.14159e-06
-5.21777e-05
2.00781e-06
-5.31701e-05
1.86736e-06
-5.40815e-05
1.71951e-06
-5.49078e-05
1.56292e-06
-5.56463e-05
1.40055e-06
-5.62934e-05
1.23201e-06
-5.68451e-05
1.05627e-06
-5.72986e-05
8.75423e-07
-5.76515e-05
6.88603e-07
-5.79013e-05
4.96877e-07
-5.80452e-05
2.99925e-07
-5.80809e-05
9.92126e-08
-5.80058e-05
-1.06376e-07
-5.78192e-05
-3.14461e-07
-5.75199e-05
-5.25538e-07
-5.71056e-05
-7.39893e-07
-5.65774e-05
-9.54121e-07
-5.5934e-05
-1.16892e-06
-5.5176e-05
-1.38445e-06
-5.43037e-05
-1.59833e-06
-5.3319e-05
-1.80997e-06
-5.22235e-05
-2.01825e-06
-5.10205e-05
-2.22173e-06
-4.97121e-05
-2.41996e-06
-4.83032e-05
-2.61047e-06
-4.67973e-05
-2.7926e-06
-4.51996e-05
-2.96582e-06
-4.35181e-05
-3.12617e-06
-4.17571e-05
-3.27567e-06
-3.99244e-05
-3.41131e-06
-3.8029e-05
-3.53124e-06
-3.60789e-05
-3.63497e-06
-3.40836e-05
-3.7217e-06
-3.20528e-05
-3.78971e-06
-2.99958e-05
-3.83939e-06
-2.79239e-05
-3.86838e-06
-2.58478e-05
-3.87705e-06
-2.37788e-05
-3.86439e-06
-2.17285e-05
-3.82996e-06
-1.97077e-05
-3.77431e-06
-1.77284e-05
-3.69668e-06
-1.58022e-05
-3.59673e-06
-1.39403e-05
-3.47546e-06
-1.21542e-05
-3.33249e-06
-1.04548e-05
-3.16869e-06
-8.85318e-06
-2.98364e-06
-7.35951e-06
-2.77902e-06
-5.984e-06
-2.5545e-06
-4.7358e-06
-2.31205e-06
-3.62378e-06
-2.05205e-06
-2.65541e-06
-1.77656e-06
-1.83698e-06
-1.48804e-06
-1.17232e-06
-1.19037e-06
-6.62343e-07
-8.89227e-07
-3.03314e-07
-5.9378e-07
-8.48923e-08
-3.18265e-07
1.28239e-08
-8.49841e-08
2.31789e-08
7.12711e-08
9.40075e-08
-9.60481e-09
-8.71719e-08
-1.04668e-07
2.39206e-08
-3.31232e-07
3.16369e-07
-7.17359e-07
7.10055e-07
-1.27776e-06
1.15294e-06
-2.01717e-06
1.61035e-06
-2.93307e-06
2.05978e-06
-4.01821e-06
2.48729e-06
-5.26184e-06
2.88469e-06
-6.6517e-06
3.24809e-06
-8.17477e-06
3.5763e-06
-9.81799e-06
3.86946e-06
-1.15675e-05
4.12877e-06
-1.34123e-05
4.35756e-06
-1.53394e-05
4.55652e-06
-1.73393e-05
4.72996e-06
-1.94011e-05
4.87834e-06
-2.15164e-05
5.00557e-06
-2.36759e-05
5.11239e-06
-2.58728e-05
5.20136e-06
-2.80987e-05
5.2724e-06
-3.0348e-05
5.32922e-06
-3.26129e-05
5.36954e-06
-3.48874e-05
5.39556e-06
-3.71654e-05
5.40778e-06
-3.94409e-05
5.40553e-06
-4.1708e-05
5.39033e-06
-4.39601e-05
5.36e-06
-4.61907e-05
5.31554e-06
-4.83937e-05
5.25678e-06
-5.05636e-05
5.18354e-06
-5.26948e-05
5.09608e-06
-5.47785e-05
4.99255e-06
-5.68107e-05
4.8749e-06
-5.87844e-05
4.74224e-06
-6.06928e-05
4.59403e-06
-6.25309e-05
4.43166e-06
-6.42914e-05
4.25373e-06
-6.59692e-05
4.06204e-06
-6.75586e-05
3.85636e-06
-6.90531e-05
3.63615e-06
-7.04496e-05
3.40424e-06
-7.17395e-05
3.15732e-06
-7.29195e-05
2.89952e-06
-7.39866e-05
2.62997e-06
-7.49348e-05
2.34871e-06
-7.57582e-05
2.05547e-06
-7.64559e-05
1.75391e-06
-7.70217e-05
1.44128e-06
-7.74533e-05
1.12019e-06
-7.77467e-05
7.90227e-07
-7.78998e-05
4.53085e-07
-7.79085e-05
1.07894e-07
-7.77731e-05
-2.41755e-07
-7.74887e-05
-5.98913e-07
-7.70549e-05
-9.59354e-07
-7.64725e-05
-1.32227e-06
-7.57392e-05
-1.68744e-06
-7.48534e-05
-2.05466e-06
-7.38189e-05
-2.41902e-06
-7.26349e-05
-2.7823e-06
-7.13042e-05
-3.14061e-06
-6.98296e-05
-3.49291e-06
-6.82136e-05
-3.83774e-06
-6.6462e-05
-4.17151e-06
-6.45787e-05
-4.49376e-06
-6.25705e-05
-4.80084e-06
-6.04452e-05
-5.09113e-06
-5.82079e-05
-5.36348e-06
-5.58702e-05
-5.6133e-06
-5.34412e-05
-5.84038e-06
-5.09303e-05
-6.04213e-06
-4.83487e-05
-6.21659e-06
-4.57084e-05
-6.36192e-06
-4.30231e-05
-6.47507e-06
-4.03054e-05
-6.55709e-06
-3.75689e-05
-6.60489e-06
-3.48275e-05
-6.61841e-06
-3.20953e-05
-6.59665e-06
-2.93882e-05
-6.53702e-06
-2.67197e-05
-6.44281e-06
-2.41057e-05
-6.31072e-06
-2.15599e-05
-6.14248e-06
-1.90981e-05
-5.93733e-06
-1.67334e-05
-5.6971e-06
-1.44817e-05
-5.42044e-06
-1.23548e-05
-5.1105e-06
-1.03676e-05
-4.76624e-06
-8.53107e-06
-4.39105e-06
-6.85778e-06
-3.98534e-06
-5.35795e-06
-3.55188e-06
-4.04042e-06
-3.09409e-06
-2.91207e-06
-2.61639e-06
-1.97726e-06
-2.12518e-06
-1.23642e-06
-1.63007e-06
-6.84938e-07
-1.14526e-06
-3.11806e-07
-6.91397e-07
-9.67967e-08
-2.99994e-07
-8.39085e-09
-1.71351e-08
8.56166e-08
-4.9743e-08
-3.7438e-08
-2.43846e-07
2.18014e-07
-6.15331e-07
6.87852e-07
-1.18506e-06
1.27979e-06
-1.96361e-06
1.93149e-06
-2.95335e-06
2.60009e-06
-4.15004e-06
3.25647e-06
-5.54493e-06
3.88218e-06
-7.12627e-06
4.46603e-06
-8.88004e-06
5.00186e-06
-1.07917e-05
5.48801e-06
-1.28462e-05
5.92394e-06
-1.5029e-05
6.31158e-06
-1.73252e-05
6.65371e-06
-1.97212e-05
6.9525e-06
-2.22048e-05
7.21362e-06
-2.47637e-05
7.43715e-06
-2.73864e-05
7.62835e-06
-3.0064e-05
7.78991e-06
-3.27841e-05
7.92154e-06
-3.55409e-05
8.02914e-06
-3.83233e-05
8.11165e-06
-4.11229e-05
8.16916e-06
-4.39331e-05
8.20576e-06
-4.67452e-05
8.21987e-06
-4.95511e-05
8.21141e-06
-5.2343e-05
8.18218e-06
-5.51137e-05
8.13068e-06
-5.78551e-05
8.05697e-06
-6.05594e-05
7.96104e-06
-6.32194e-05
7.84364e-06
-6.58264e-05
7.70302e-06
-6.83736e-05
7.53974e-06
-7.08519e-05
7.35317e-06
-7.32545e-05
7.14483e-06
-7.55745e-05
6.9141e-06
-7.78027e-05
6.65985e-06
-7.99336e-05
6.38464e-06
-8.19597e-05
6.08811e-06
-8.38742e-05
5.77086e-06
-8.56704e-05
5.43229e-06
-8.73402e-05
5.0741e-06
-8.88812e-05
4.69824e-06
-9.02852e-05
4.30355e-06
-9.15469e-05
3.89171e-06
-9.26606e-05
3.46234e-06
-9.36243e-05
3.01916e-06
-9.44307e-05
2.56033e-06
-9.50755e-05
2.08614e-06
-9.55559e-05
1.60051e-06
-9.58685e-05
1.10285e-06
-9.60095e-05
5.94117e-07
-9.59758e-05
7.41525e-08
-9.57639e-05
-4.53594e-07
-9.53753e-05
-9.8757e-07
-9.48056e-05
-1.52903e-06
-9.4054e-05
-2.07388e-06
-9.31202e-05
-2.62127e-06
-9.20066e-05
-3.16824e-06
-9.0711e-05
-3.71464e-06
-8.92367e-05
-4.25659e-06
-8.75865e-05
-4.79079e-06
-8.57638e-05
-5.31561e-06
-8.37735e-05
-5.82808e-06
-8.16191e-05
-6.32592e-06
-7.9309e-05
-6.80384e-06
-7.68498e-05
-7.25998e-06
-7.42491e-05
-7.69184e-06
-7.15179e-05
-8.09468e-06
-6.86654e-05
-8.4658e-06
-6.57045e-05
-8.80128e-06
-6.26469e-05
-9.0998e-06
-5.9506e-05
-9.35749e-06
-5.62965e-05
-9.57143e-06
-5.30327e-05
-9.73885e-06
-4.97304e-05
-9.8594e-06
-4.64066e-05
-9.92862e-06
-4.30776e-05
-9.94745e-06
-3.97606e-05
-9.91367e-06
-3.64713e-05
-9.82629e-06
-3.32312e-05
-9.68292e-06
-3.00537e-05
-9.48826e-06
-2.69591e-05
-9.23707e-06
-2.39633e-05
-8.93306e-06
-2.10835e-05
-8.57693e-06
-1.83368e-05
-8.16714e-06
-1.57385e-05
-7.70879e-06
-1.33038e-05
-7.20094e-06
-1.10479e-05
-6.64703e-06
-8.98333e-06
-6.04986e-06
-7.12205e-06
-5.41317e-06
-5.47391e-06
-4.74222e-06
-4.0466e-06
-4.0437e-06
-2.84458e-06
-3.3272e-06
-1.86838e-06
-2.60627e-06
-1.11456e-06
-1.89908e-06
-5.72415e-07
-1.23355e-06
-2.24584e-07
-6.47825e-07
-4.54358e-08
-1.96284e-07
4.01807e-08
-9.226e-08
5.48136e-08
-3.92626e-07
5.18371e-07
-9.1938e-07
1.2146e-06
-1.68387e-06
2.04428e-06
-2.69055e-06
2.93817e-06
-3.93768e-06
3.84723e-06
-5.4184e-06
4.73719e-06
-7.12211e-06
5.58588e-06
-9.03525e-06
6.37918e-06
-1.11429e-05
7.10946e-06
-1.34282e-05
7.77339e-06
-1.58751e-05
8.37085e-06
-1.84674e-05
8.90386e-06
-2.11888e-05
9.37512e-06
-2.40252e-05
9.78884e-06
-2.69595e-05
1.01479e-05
-2.99818e-05
1.04595e-05
-3.30762e-05
1.07228e-05
-3.6231e-05
1.09446e-05
-3.94369e-05
1.11275e-05
-4.26812e-05
1.12734e-05
-4.59535e-05
1.13839e-05
-4.92447e-05
1.14604e-05
-5.25442e-05
1.15052e-05
-5.58426e-05
1.15183e-05
-5.91315e-05
1.15002e-05
-6.23992e-05
1.14499e-05
-6.56384e-05
1.13698e-05
-6.88406e-05
1.12592e-05
-7.19953e-05
1.11158e-05
-7.50914e-05
1.09398e-05
-7.81233e-05
1.07348e-05
-8.10783e-05
1.04948e-05
-8.39512e-05
1.0226e-05
-8.67303e-05
9.92397e-06
-8.9408e-05
9.59177e-06
-9.19764e-05
9.22822e-06
-9.44256e-05
8.83385e-06
-9.67487e-05
8.41125e-06
-9.89366e-05
7.95874e-06
-0.000100985
7.48101e-06
-0.000102885
6.97379e-06
-0.00010463
6.44353e-06
-0.000106214
5.88706e-06
-0.000107629
5.30731e-06
-0.000108874
4.70649e-06
-0.000109939
4.08507e-06
-0.000110822
3.44313e-06
-0.000111519
2.78292e-06
-0.000112023
2.10446e-06
-0.000112333
1.41264e-06
-0.000112443
7.03982e-07
-0.000112352
-1.64031e-08
-0.000112059
-7.46913e-07
-0.000111557
-1.48942e-06
-0.00011085
-2.23591e-06
-0.000109935
-2.98931e-06
-0.00010881
-3.74551e-06
-0.000107479
-4.49956e-06
-0.000105941
-5.25298e-06
-0.0001042
-5.99686e-06
-0.000102258
-6.73307e-06
-0.000100119
-7.45436e-06
-9.77883e-05
-8.15924e-06
-9.52727e-05
-8.84143e-06
-9.25795e-05
-9.49706e-06
-8.97161e-05
-1.01234e-05
-8.6695e-05
-1.07129e-05
-8.35235e-05
-1.12663e-05
-8.0217e-05
-1.17723e-05
-7.67848e-05
-1.22334e-05
-7.32442e-05
-1.26404e-05
-6.96094e-05
-1.29922e-05
-6.5898e-05
-1.32829e-05
-6.2124e-05
-1.35128e-05
-5.83078e-05
-1.36756e-05
-5.44664e-05
-1.377e-05
-5.06197e-05
-1.37941e-05
-4.67864e-05
-1.3747e-05
-4.29872e-05
-1.36255e-05
-3.9239e-05
-1.34311e-05
-3.55659e-05
-1.31614e-05
-3.19843e-05
-1.28187e-05
-2.85132e-05
-1.24042e-05
-2.51753e-05
-1.19148e-05
-2.19847e-05
-1.13577e-05
-1.89621e-05
-1.07313e-05
-1.61233e-05
-1.00398e-05
-1.34844e-05
-9.28592e-06
-1.10597e-05
-8.47458e-06
-8.86199e-06
-7.61087e-06
-6.90219e-06
-6.70203e-06
-5.18792e-06
-5.75797e-06
-3.72579e-06
-4.78933e-06
-2.51662e-06
-3.81543e-06
-1.55808e-06
-2.85762e-06
-8.42287e-07
-1.94934e-06
-3.56862e-07
-1.13325e-06
-8.33684e-08
-4.69778e-07
-4.31878e-08
-1.34746e-07
1.89553e-07
-5.43059e-07
9.26676e-07
-1.22848e-06
1.90002e-06
-2.19186e-06
3.00766e-06
-3.43027e-06
4.17659e-06
-4.93677e-06
5.35373e-06
-6.701e-06
6.50141e-06
-8.70963e-06
7.59451e-06
-1.09474e-05
8.61691e-06
-1.33972e-05
9.55927e-06
-1.60415e-05
1.04177e-05
-1.88627e-05
1.1192e-05
-2.1844e-05
1.18852e-05
-2.49666e-05
1.24977e-05
-2.82143e-05
1.30365e-05
-3.15711e-05
1.35047e-05
-3.50225e-05
1.39109e-05
-3.85553e-05
1.42555e-05
-4.2153e-05
1.45424e-05
-4.58041e-05
1.47787e-05
-4.94963e-05
1.49656e-05
-5.3218e-05
1.51056e-05
-5.69563e-05
1.51987e-05
-6.07013e-05
1.52502e-05
-6.44414e-05
1.52584e-05
-6.81664e-05
1.52252e-05
-7.18659e-05
1.51494e-05
-7.55265e-05
1.50304e-05
-7.9137e-05
1.48697e-05
-8.26912e-05
1.46699e-05
-8.61767e-05
1.44252e-05
-8.95809e-05
1.41391e-05
-9.28968e-05
1.38107e-05
-9.61108e-05
1.344e-05
-9.92169e-05
1.303e-05
-0.000102203
1.25784e-05
-0.000105059
1.20837e-05
-0.000107779
1.15536e-05
-0.00011035
1.09826e-05
-0.000112768
1.03765e-05
-0.000115022
9.73531e-06
-0.000117108
9.05939e-06
-0.000119014
8.34954e-06
-0.000120739
7.61213e-06
-0.000122273
6.84178e-06
-0.000123611
6.04452e-06
-0.000124749
5.2226e-06
-0.00012568
4.37437e-06
-0.0001264
3.50327e-06
-0.000126908
2.61175e-06
-0.000127195
1.70021e-06
-0.000127262
7.71081e-07
-0.000127105
-1.73733e-07
-0.000126719
-1.13259e-06
-0.000126108
-2.10117e-06
-0.000125265
-3.07909e-06
-0.00012419
-4.06358e-06
-0.000122888
-5.04752e-06
-0.000121355
-6.03317e-06
-0.000119595
-7.01274e-06
-0.000117609
-7.98245e-06
-0.000115403
-8.93891e-06
-0.000112979
-9.87846e-06
-0.000110347
-1.07918e-05
-0.000107508
-1.16802e-05
-0.000104475
-1.25302e-05
-0.000101256
-1.33427e-05
-9.786e-05
-1.41085e-05
-9.43027e-05
-1.48236e-05
-9.05934e-05
-1.54816e-05
-8.6749e-05
-1.60778e-05
-8.27863e-05
-1.66031e-05
-7.87195e-05
-1.7059e-05
-7.45647e-05
-1.74377e-05
-7.03442e-05
-1.77333e-05
-6.60772e-05
-1.79427e-05
-6.17828e-05
-1.80644e-05
-5.74825e-05
-1.80944e-05
-5.31959e-05
-1.80336e-05
-4.89454e-05
-1.7876e-05
-4.47535e-05
-1.7623e-05
-4.06404e-05
-1.72745e-05
-3.66262e-05
-1.68329e-05
-3.27353e-05
-1.6295e-05
-2.89871e-05
-1.5663e-05
-2.5401e-05
-1.49439e-05
-2.19961e-05
-1.41362e-05
-1.87902e-05
-1.32457e-05
-1.58023e-05
-1.22739e-05
-1.30465e-05
-1.12303e-05
-1.05369e-05
-1.01205e-05
-8.28394e-06
-8.95498e-06
-6.29947e-06
-7.74243e-06
-4.58716e-06
-6.50165e-06
-3.15198e-06
-5.25061e-06
-1.9932e-06
-4.0164e-06
-1.10675e-06
-2.83579e-06
-4.85395e-07
-1.75461e-06
-1.19731e-07
-8.35443e-07
-1.62918e-07
-1.75909e-07
3.65455e-07
-6.9045e-07
1.44121e-06
-1.53318e-06
2.74274e-06
-2.6943e-06
4.16878e-06
-4.16285e-06
5.64514e-06
-5.92611e-06
7.11699e-06
-7.96948e-06
8.54479e-06
-1.02765e-05
9.90154e-06
-1.28293e-05
1.11697e-05
-1.56093e-05
1.23392e-05
-1.85985e-05
1.3407e-05
-2.17759e-05
1.43693e-05
-2.51219e-05
1.52313e-05
-2.86225e-05
1.59983e-05
-3.22556e-05
1.66696e-05
-3.6007e-05
1.7256e-05
-3.98577e-05
1.77616e-05
-4.3791e-05
1.81888e-05
-4.77983e-05
1.85497e-05
-5.18587e-05
1.88391e-05
-5.59608e-05
1.90676e-05
-6.00917e-05
1.92366e-05
-6.42393e-05
1.93464e-05
-6.83869e-05
1.93978e-05
-7.25259e-05
1.93975e-05
-7.66412e-05
1.93405e-05
-8.07217e-05
1.923e-05
-8.47583e-05
1.9067e-05
-8.87349e-05
1.88463e-05
-9.26416e-05
1.85766e-05
-9.64649e-05
1.82486e-05
-0.000100197
1.78709e-05
-0.000103822
1.74362e-05
-0.000107333
1.69506e-05
-0.000110716
1.64129e-05
-0.00011396
1.58228e-05
-0.00011706
1.51834e-05
-0.000120001
1.44944e-05
-0.000122778
1.37603e-05
-0.00012538
1.29784e-05
-0.000127799
1.21539e-05
-0.000130028
1.12883e-05
-0.000132059
1.03813e-05
-0.000133886
9.43877e-06
-0.000135504
8.45932e-06
-0.000136906
7.44717e-06
-0.000138086
6.4026e-06
-0.000139042
5.33041e-06
-0.000139766
4.22728e-06
-0.000140257
3.1027e-06
-0.000140509
1.95225e-06
-0.000140522
7.83864e-07
-0.00014029
-4.06176e-07
-0.000139813
-1.60921e-06
-0.000139088
-2.8258e-06
-0.000138116
-4.05189e-06
-0.000136895
-5.28388e-06
-0.000135426
-6.51701e-06
-0.000133709
-7.74951e-06
-0.000131748
-8.97413e-06
-0.000129544
-1.01863e-05
-0.000127101
-1.1382e-05
-0.000124427
-1.25524e-05
-0.000121524
-1.36946e-05
-0.000118405
-1.47997e-05
-0.000115072
-1.58624e-05
-0.000111541
-1.6874e-05
-0.000107821
-1.78285e-05
-0.000103924
-1.87208e-05
-9.98675e-05
-1.95381e-05
-9.56635e-05
-2.02818e-05
-9.13284e-05
-2.09382e-05
-8.68845e-05
-2.15029e-05
-8.23492e-05
-2.1973e-05
-7.77412e-05
-2.23413e-05
-7.30801e-05
-2.26038e-05
-6.83907e-05
-2.27538e-05
-6.36906e-05
-2.27945e-05
-5.90073e-05
-2.2717e-05
-5.43625e-05
-2.25208e-05
-4.97786e-05
-2.22069e-05
-4.52761e-05
-2.1777e-05
-4.08851e-05
-2.12239e-05
-3.66212e-05
-2.05589e-05
-3.25065e-05
-1.97778e-05
-2.85661e-05
-1.88843e-05
-2.4817e-05
-1.78853e-05
-2.12829e-05
-1.67798e-05
-1.79771e-05
-1.55796e-05
-1.49168e-05
-1.42907e-05
-1.21189e-05
-1.29184e-05
-9.59462e-06
-1.14792e-05
-7.3539e-06
-9.98315e-06
-5.40616e-06
-8.44939e-06
-3.75602e-06
-6.90075e-06
-2.40565e-06
-5.36678e-06
-1.35615e-06
-3.88528e-06
-6.05838e-07
-2.50493e-06
-1.5331e-07
-1.28797e-06
-3.16228e-07
-2.15065e-07
5.80514e-07
-8.31919e-07
2.05806e-06
-1.82733e-06
3.73815e-06
-3.18118e-06
5.52263e-06
-4.8744e-06
7.33836e-06
-6.88801e-06
9.1306e-06
-9.20264e-06
1.08594e-05
-1.17984e-05
1.24973e-05
-1.46549e-05
1.40263e-05
-1.77522e-05
1.54365e-05
-2.10666e-05
1.67214e-05
-2.45826e-05
1.78852e-05
-2.82778e-05
1.89265e-05
-3.21287e-05
1.98492e-05
-3.61215e-05
2.06624e-05
-4.02383e-05
2.13728e-05
-4.44575e-05
2.19808e-05
-4.87643e-05
2.24957e-05
-5.31425e-05
2.29278e-05
-5.75788e-05
2.32754e-05
-6.20541e-05
2.3543e-05
-6.65549e-05
2.37373e-05
-7.10673e-05
2.38587e-05
-7.55784e-05
2.39089e-05
-8.0072e-05
2.3891e-05
-8.45375e-05
2.38059e-05
-8.89608e-05
2.36533e-05
-9.33242e-05
2.34304e-05
-9.7621e-05
2.3143e-05
-0.000101831
2.27866e-05
-0.00010595
2.23673e-05
-0.000109959
2.18798e-05
-0.000113848
2.13258e-05
-0.000117606
2.07085e-05
-0.00012122
2.0027e-05
-0.000124683
1.92851e-05
-0.000127976
1.84774e-05
-0.000131101
1.76185e-05
-0.000134036
1.66961e-05
-0.000136781
1.57234e-05
-0.000139326
1.46984e-05
-0.000141661
1.36235e-05
-0.000143783
1.25032e-05
-0.000145681
1.13371e-05
-0.000147353
1.01312e-05
-0.00014879
8.88359e-06
-0.00014999
7.60299e-06
-0.000150945
6.28556e-06
-0.000151656
4.93849e-06
-0.000152116
3.562e-06
-0.000152323
2.15926e-06
-0.000152272
7.32924e-07
-0.000151964
-7.14136e-07
-0.000151394
-2.17941e-06
-0.000150563
-3.6564e-06
-0.000149468
-5.14669e-06
-0.000148111
-6.64135e-06
-0.000146489
-8.13822e-06
-0.000144609
-9.63038e-06
-0.000142469
-1.11141e-05
-0.000140072
-1.25827e-05
-0.000137426
-1.40282e-05
-0.00013453
-1.54489e-05
-0.000131398
-1.68264e-05
-0.000128031
-1.81669e-05
-0.000124443
-1.94501e-05
-0.000120643
-2.06741e-05
-0.000116643
-2.18284e-05
-0.000112457
-2.29064e-05
-0.000108099
-2.38963e-05
-0.000103588
-2.4793e-05
-9.89381e-05
-2.55881e-05
-9.41686e-05
-2.62724e-05
-8.92986e-05
-2.6843e-05
-8.43524e-05
-2.72874e-05
-7.93525e-05
-2.76037e-05
-7.43183e-05
-2.7788e-05
-6.9276e-05
-2.78368e-05
-6.4248e-05
-2.77449e-05
-5.9258e-05
-2.75107e-05
-5.43289e-05
-2.7136e-05
-4.94895e-05
-2.66164e-05
-4.47611e-05
-2.59523e-05
-4.01669e-05
-2.51531e-05
-3.57287e-05
-2.42159e-05
-3.14724e-05
-2.31406e-05
-2.74189e-05
-2.19388e-05
-2.3583e-05
-2.06157e-05
-1.9988e-05
-1.91746e-05
-1.66534e-05
-1.76252e-05
-1.35895e-05
-1.59823e-05
-1.08139e-05
-1.42548e-05
-8.33741e-06
-1.24597e-05
-6.16962e-06
-1.06172e-05
-4.3181e-06
-8.75227e-06
-2.78897e-06
-6.89591e-06
-1.58644e-06
-5.08781e-06
-7.16127e-07
-3.37524e-06
-1.8358e-07
-1.82052e-06
-4.99809e-07
-2.5183e-07
8.32339e-07
-9.658e-07
2.77202e-06
-2.1071e-06
4.87944e-06
-3.64578e-06
7.06131e-06
-5.55466e-06
9.24724e-06
-7.80921e-06
1.13852e-05
-1.03845e-05
1.34347e-05
-1.32568e-05
1.53696e-05
-1.64041e-05
1.71735e-05
-1.97991e-05
1.88315e-05
-2.34262e-05
2.03485e-05
-2.72605e-05
2.17196e-05
-3.12766e-05
2.29426e-05
-3.54613e-05
2.40339e-05
-3.97873e-05
2.49884e-05
-4.42379e-05
2.58234e-05
-4.87981e-05
2.6541e-05
-5.34483e-05
2.71459e-05
-5.81664e-05
2.76459e-05
-6.29378e-05
2.80468e-05
-6.77517e-05
2.83569e-05
-7.25869e-05
2.85725e-05
-7.74283e-05
2.87001e-05
-8.22614e-05
2.8742e-05
-8.7067e-05
2.86967e-05
-9.18417e-05
2.85806e-05
-9.65621e-05
2.83737e-05
-0.000101214
2.80824e-05
-0.000105784
2.77127e-05
-0.000110257
2.72595e-05
-0.000114618
2.6729e-05
-0.00011887
2.61312e-05
-0.000122972
2.54285e-05
-0.00012694
2.46764e-05
-0.000130734
2.3821e-05
-0.000134371
2.29213e-05
-0.000137815
2.19215e-05
-0.00014108
2.08841e-05
-0.000144137
1.97529e-05
-0.000146988
1.85739e-05
-0.000149624
1.73347e-05
-0.000152026
1.60253e-05
-0.000154205
1.46822e-05
-0.000156139
1.32715e-05
-0.00015784
1.18325e-05
-0.000159292
1.03348e-05
-0.000160485
8.79619e-06
-0.000161421
7.22169e-06
-0.000162096
5.61308e-06
-0.000162522
3.98836e-06
-0.000162665
2.30209e-06
-0.000162555
6.22903e-07
-0.000162173
-1.09623e-06
-0.000161517
-2.83487e-06
-0.000160583
-4.59027e-06
-0.000159373
-6.35737e-06
-0.000157899
-8.11551e-06
-0.000156144
-9.89313e-06
-0.000154125
-1.16489e-05
-0.000151827
-1.34126e-05
-0.000149265
-1.51439e-05
-0.000146445
-1.68489e-05
-0.000143358
-1.85352e-05
-0.000140035
-2.01495e-05
-0.000136459
-2.17435e-05
-0.000132663
-2.3246e-05
-0.00012863
-2.47071e-05
-0.0001244
-2.60579e-05
-0.000119961
-2.73457e-05
-0.000115353
-2.85047e-05
-0.000110581
-2.9565e-05
-0.000105661
-3.05079e-05
-0.000100615
-3.13186e-05
-9.54625e-05
-3.19951e-05
-9.02261e-05
-3.25239e-05
-8.49372e-05
-3.28925e-05
-7.96079e-05
-3.31173e-05
-7.42672e-05
-3.31776e-05
-6.89389e-05
-3.30732e-05
-6.36478e-05
-3.28019e-05
-5.84244e-05
-3.23594e-05
-5.32884e-05
-3.17524e-05
-4.82623e-05
-3.09784e-05
-4.33762e-05
-3.00393e-05
-3.86548e-05
-2.89373e-05
-3.4118e-05
-2.76774e-05
-2.97852e-05
-2.62716e-05
-2.56851e-05
-2.47158e-05
-2.18297e-05
-2.303e-05
-1.82411e-05
-2.12138e-05
-1.49384e-05
-1.9285e-05
-1.19323e-05
-1.7261e-05
-9.23853e-06
-1.51534e-05
-6.86785e-06
-1.29879e-05
-4.82978e-06
-1.07903e-05
-3.13617e-06
-8.58951e-06
-1.79442e-06
-6.42956e-06
-8.14589e-07
-4.35507e-06
-2.10523e-07
-2.42459e-06
-7.10331e-07
-2.85987e-07
1.11832e-06
-1.09099e-06
3.57702e-06
-2.36978e-06
6.15822e-06
-4.08328e-06
8.77481e-06
-6.19723e-06
1.13612e-05
-8.67998e-06
1.38679e-05
-1.15024e-05
1.62571e-05
-1.46381e-05
1.85052e-05
-1.80567e-05
2.05922e-05
-2.17391e-05
2.25139e-05
-2.566e-05
2.42694e-05
-2.97857e-05
2.58453e-05
-3.4107e-05
2.72639e-05
-3.85931e-05
2.852e-05
-4.32327e-05
2.9628e-05
-4.79889e-05
3.05797e-05
-5.28577e-05
3.14098e-05
-5.78168e-05
3.2105e-05
-6.28396e-05
3.26688e-05
-6.79207e-05
3.31279e-05
-7.30326e-05
3.34687e-05
-7.8166e-05
3.3706e-05
-8.32923e-05
3.38264e-05
-8.84114e-05
3.38612e-05
-9.35022e-05
3.37874e-05
-9.85329e-05
3.36114e-05
-0.000103507
3.33481e-05
-0.000108399
3.29738e-05
-0.000113204
3.25183e-05
-0.000117902
3.19567e-05
-0.000122476
3.13039e-05
-0.0001269
3.05546e-05
-0.000131188
2.97169e-05
-0.000135301
2.87892e-05
-0.000139251
2.77714e-05
-0.000143016
2.66863e-05
-0.000146584
2.54886e-05
-0.000149929
2.42299e-05
-0.000153072
2.2895e-05
-0.00015599
2.14925e-05
-0.000158663
2.00079e-05
-0.000161114
1.84756e-05
-0.000163319
1.68876e-05
-0.000165277
1.5229e-05
-0.000166963
1.35186e-05
-0.000168409
1.17812e-05
-0.000169577
9.96381e-06
-0.000170497
8.14182e-06
-0.000171131
6.24747e-06
-0.000171498
4.3548e-06
-0.000171591
2.39536e-06
-0.000171411
4.426e-07
-0.000170937
-1.56981e-06
-0.000170203
-3.56891e-06
-0.000169173
-5.62073e-06
-0.00016788
-7.64966e-06
-0.000166291
-9.70506e-06
-0.000164422
-1.17615e-05
-0.000162275
-1.37965e-05
-0.000159866
-1.58213e-05
-0.000157169
-1.78411e-05
-0.000154202
-1.98156e-05
-0.000150984
-2.17539e-05
-0.000147492
-2.36416e-05
-0.000143748
-2.54871e-05
-0.000139764
-2.72301e-05
-0.000135562
-2.89086e-05
-0.00013113
-3.04907e-05
-0.000126508
-3.1967e-05
-0.000121683
-3.33297e-05
-0.000116684
-3.45642e-05
-0.000111539
-3.56526e-05
-0.000106267
-3.65913e-05
-0.000100879
-3.73827e-05
-9.54101e-05
-3.79929e-05
-8.98634e-05
-3.84392e-05
-8.42804e-05
-3.87003e-05
-7.86911e-05
-3.87668e-05
-7.31047e-05
-3.86596e-05
-6.75588e-05
-3.83478e-05
-6.20725e-05
-3.78457e-05
-5.66815e-05
-3.71434e-05
-5.13995e-05
-3.62604e-05
-4.62592e-05
-3.51796e-05
-4.12898e-05
-3.39067e-05
-3.64987e-05
-3.24685e-05
-3.19258e-05
-3.08444e-05
-2.75833e-05
-2.90584e-05
-2.35e-05
-2.71133e-05
-1.96827e-05
-2.50311e-05
-1.61595e-05
-2.28082e-05
-1.29469e-05
-2.04735e-05
-1.00526e-05
-1.80477e-05
-7.4963e-06
-1.55442e-05
-5.29202e-06
-1.29946e-05
-3.44772e-06
-1.04338e-05
-1.97974e-06
-7.89755e-06
-9.02282e-07
-5.43252e-06
-2.33847e-07
-3.09302e-06
-9.44178e-07
-3.17483e-07
1.4358e-06
-1.20671e-06
4.46623e-06
-2.61328e-06
7.56479e-06
-4.49058e-06
1.06521e-05
-6.79622e-06
1.36668e-05
-9.49323e-06
1.65649e-05
-1.25475e-05
1.93114e-05
-1.59279e-05
2.18856e-05
-1.96063e-05
2.42706e-05
-2.35533e-05
2.64609e-05
-2.77374e-05
2.84535e-05
-3.21469e-05
3.02549e-05
-3.67435e-05
3.18604e-05
-4.15097e-05
3.32862e-05
-4.64236e-05
3.4542e-05
-5.14716e-05
3.56277e-05
-5.66232e-05
3.65613e-05
-6.18586e-05
3.73403e-05
-6.71629e-05
3.79731e-05
-7.25084e-05
3.84734e-05
-7.78907e-05
3.8851e-05
-8.32717e-05
3.9087e-05
-8.86586e-05
3.92133e-05
-9.40226e-05
3.92252e-05
-9.93361e-05
3.91009e-05
-0.000104602
3.8877e-05
-0.000109786
3.85327e-05
-0.000114884
3.80715e-05
-0.00011988
3.75141e-05
-0.000124741
3.68182e-05
-0.000129479
3.60415e-05
-0.000134052
3.51275e-05
-0.000138474
3.41386e-05
-0.000142718
3.30335e-05
-0.000146772
3.18255e-05
-0.000150608
3.05218e-05
-0.000154248
2.91295e-05
-0.000157668
2.76497e-05
-0.000160858
2.60847e-05
-0.000163808
2.44425e-05
-0.000166516
2.27158e-05
-0.000168973
2.09334e-05
-0.000171157
1.90716e-05
-0.0001731
1.71711e-05
-0.00017478
1.51993e-05
-0.000176176
1.31774e-05
-0.000177321
1.11087e-05
-0.000178179
8.99938e-06
-0.00017878
6.84911e-06
-0.000179071
4.64548e-06
-0.000179121
2.44525e-06
-0.000178857
1.78803e-07
-0.000178331
-2.09614e-06
-0.000177506
-4.39344e-06
-0.000176417
-6.70997e-06
-0.000175027
-9.04005e-06
-0.000173354
-1.13782e-05
-0.000171414
-1.37007e-05
-0.000169174