/*--------------------------------*- C++ -*----------------------------------*\
| =========                 |                                                 |
| \\      /  F ield         | OpenFOAM: The Open Source CFD Toolbox           |
|  \\    /   O peration     | Version:  2406                                  |
|   \\  /    A nd           | Website:  www.openfoam.com                      |
|    \\/     M anipulation  |                                                 |
\*---------------------------------------------------------------------------*/
FoamFile
{
    version     2.0;
    format      ascii;
    arch        "LSB;label=32;scalar=64";
    class       volVectorField;
    location    "744";
    object      U;
}
// * * * * * * * * * * * * * * * * * * * * * * * * * * * * * * * * * * * * * //

dimensions      [0 1 -1 0 0 0 0];

internalField   nonuniform List<vector> 
9612
(
(1.25493e-05 -1.26087e-05 0)
(5.46344e-05 -1.66e-05 0)
(9.02837e-05 -1.33371e-05 -1.19232e-27)
(9.99151e-05 -7.234e-06 0)
(7.2683e-05 -4.97546e-07 0)
(5.98535e-06 6.05267e-06 -1.53863e-26)
(-9.94005e-05 1.20287e-05 -2.5421e-26)
(-0.000241059 1.72925e-05 2.54203e-26)
(-0.000415804 2.18367e-05 3.13844e-26)
(-0.000620208 2.5711e-05 -1.66344e-25)
(-0.000850757 2.89898e-05 1.25499e-25)
(-0.0011044 3.17572e-05 2.00326e-25)
(-0.00137787 3.40732e-05 -2.48551e-25)
(-0.00166884 3.60148e-05 -1.22139e-25)
(-0.00197459 3.76316e-05 -7.75796e-27)
(-0.00229311 3.90112e-05 3.41002e-25)
(-0.00262277 4.01886e-05 -1.10506e-25)
(-0.00296166 4.11628e-05 0)
(-0.00330861 4.19803e-05 0)
(-0.00366186 4.26821e-05 0)
(-0.00402115 4.3282e-05 1.01382e-25)
(-0.00438443 4.37896e-05 -9.52936e-26)
(-0.00475171 4.4246e-05 0)
(-0.00512148 4.45827e-05 7.83991e-26)
(-0.00549326 4.48179e-05 0)
(-0.00586539 4.49843e-05 5.50333e-26)
(-0.0062382 4.51196e-05 0)
(-0.00660999 4.51569e-05 2.49416e-26)
(-0.00698007 4.50661e-05 0)
(-0.0073478 4.48419e-05 0)
(-0.00771142 4.45048e-05 -7.1411e-26)
(-0.00807076 4.40786e-05 7.14067e-26)
(-0.00842456 4.35504e-05 1.6273e-25)
(-0.00877144 4.29209e-05 2.16357e-25)
(-0.00911135 4.21726e-05 0)
(-0.00944233 4.12639e-05 0)
(-0.00976353 4.02032e-05 3.99971e-25)
(-0.0100743 3.89533e-05 9.58981e-25)
(-0.0103724 3.75692e-05 -4.9018e-25)
(-0.010658 3.60962e-05 0)
(-0.0109296 3.44945e-05 3.78101e-25)
(-0.0111862 3.28016e-05 -7.2693e-25)
(-0.0114274 3.09653e-05 -4.3431e-25)
(-0.0116516 2.89508e-05 0)
(-0.011858 2.68311e-05 0)
(-0.0120457 2.45511e-05 0)
(-0.0122139 2.21827e-05 0)
(-0.0123617 1.97028e-05 0)
(-0.0124884 1.70954e-05 0)
(-0.0125933 1.43751e-05 0)
(-0.0126755 1.15673e-05 0)
(-0.0127344 8.63626e-06 0)
(-0.0127694 5.60787e-06 0)
(-0.0127799 2.49796e-06 0)
(-0.0127652 -7.0662e-07 0)
(-0.012725 -4.02088e-06 0)
(-0.0126588 -7.3625e-06 1.18843e-24)
(-0.0125663 -1.07976e-05 1.24803e-24)
(-0.0124471 -1.42159e-05 -2.68293e-24)
(-0.0123019 -1.7653e-05 5.48575e-24)
(-0.0121299 -2.11511e-05 -4.22921e-24)
(-0.0119313 -2.46508e-05 1.48491e-24)
(-0.0117069 -2.81779e-05 0)
(-0.0114558 -3.1665e-05 0)
(-0.0111797 -3.50269e-05 0)
(-0.0108791 -3.82805e-05 0)
(-0.0105546 -4.13881e-05 0)
(-0.0102082 -4.43634e-05 0)
(-0.00984021 -4.71963e-05 -7.51723e-24)
(-0.0094523 -4.98527e-05 3.79216e-24)
(-0.00904648 -5.23157e-05 0)
(-0.00862352 -5.45284e-05 0)
(-0.00818638 -5.64378e-05 2.03673e-24)
(-0.00773679 -5.80189e-05 -4.14774e-24)
(-0.00727674 -5.92789e-05 -2.16268e-24)
(-0.00680962 -6.02728e-05 4.2713e-24)
(-0.00633646 -6.09337e-05 -2.16796e-24)
(-0.00586081 -6.12111e-05 0)
(-0.00538487 -6.10756e-05 0)
(-0.00491207 -6.0604e-05 0)
(-0.00444404 -5.97476e-05 4.53805e-24)
(-0.0039848 -5.85123e-05 -4.53857e-24)
(-0.0035361 -5.68966e-05 0)
(-0.00310136 -5.48836e-05 2.28188e-24)
(-0.00268306 -5.24554e-05 0)
(-0.00228427 -4.96568e-05 -6.88351e-24)
(-0.00190751 -4.64955e-05 4.59532e-24)
(-0.00155534 -4.29304e-05 -4.58159e-24)
(-0.00123076 -3.89713e-05 4.58199e-24)
(-0.000936005 -3.45982e-05 1.13683e-24)
(-0.000673906 -2.98161e-05 0)
(-0.0004467 -2.45957e-05 0)
(-0.000256812 -1.89203e-05 0)
(-0.000106265 -1.27856e-05 1.11769e-24)
(3.33664e-06 -6.23376e-06 1.11239e-24)
(7.12562e-05 5.91506e-07 0)
(9.83237e-05 7.32875e-06 0)
(8.84711e-05 1.3232e-05 0)
(5.32722e-05 1.62451e-05 0)
(1.2192e-05 1.22027e-05 0)
(1.66839e-05 -5.4847e-05 0)
(7.22126e-05 -7.20852e-05 -6.16019e-28)
(9.39425e-05 -3.58183e-05 1.48518e-27)
(4.71055e-05 2.71778e-05 9.03071e-27)
(-8.96306e-05 0.000101217 -1.89699e-26)
(-0.000323572 0.00017743 1.9221e-26)
(-0.000654743 0.000250959 -1.11182e-26)
(-0.00107899 0.000319318 1.73847e-25)
(-0.00158985 0.000381398 -1.05198e-25)
(-0.0021797 0.000436881 0)
(-0.00284064 0.000485938 1.37262e-25)
(-0.0035646 0.00052887 9.49138e-26)
(-0.00434445 0.000566293 6.02435e-26)
(-0.00517283 0.00059863 8.88558e-26)
(-0.00604394 0.000626553 2.24948e-25)
(-0.00695152 0.000650522 -1.13855e-25)
(-0.00789076 0.000671032 -1.14757e-25)
(-0.00885698 0.000688445 2.31196e-25)
(-0.00984613 0.000703119 -2.45077e-25)
(-0.0108545 0.000715442 4.80274e-25)
(-0.0118786 0.000725529 -3.61625e-25)
(-0.0129155 0.000733663 3.09154e-25)
(-0.0139622 0.000739954 3.53914e-25)
(-0.0150159 0.000744357 -2.91049e-25)
(-0.016074 0.000746944 1.57842e-25)
(-0.0171338 0.000747864 -2.47245e-25)
(-0.0181929 0.000747058 -1.16235e-25)
(-0.0192481 0.000744356 5.5371e-26)
(-0.020297 0.000739872 0)
(-0.0213374 0.00073344 7.9733e-26)
(-0.0223659 0.000724992 -7.97155e-26)
(-0.02338 0.000714628 0)
(-0.0243766 0.000702269 -2.02209e-25)
(-0.0253527 0.000687924 3.54275e-25)
(-0.0263056 0.00067148 0)
(-0.0272323 0.00065285 0)
(-0.0281297 0.000632064 5.74051e-25)
(-0.028995 0.000609005 -1.82089e-24)
(-0.0298252 0.000583896 0)
(-0.0306174 0.000556879 0)
(-0.031369 0.000527839 4.332e-25)
(-0.0320773 0.00049699 0)
(-0.0327389 0.000464284 5.39229e-25)
(-0.0333531 0.000429519 1.26151e-24)
(-0.0339151 0.000392866 1.17476e-25)
(-0.0344238 0.000354483 -1.37866e-24)
(-0.0348768 0.000314497 7.84806e-25)
(-0.0352714 0.000273024 0)
(-0.0356067 0.000229985 -4.55853e-25)
(-0.0358797 0.000185344 0)
(-0.0360887 0.000139333 0)
(-0.0362318 9.19838e-05 5.56602e-25)
(-0.0363074 4.35412e-05 0)
(-0.036315 -5.98155e-06 2.58058e-24)
(-0.036252 -5.66356e-05 -5.3059e-24)
(-0.0361179 -0.000108218 5.51856e-24)
(-0.0359118 -0.000160504 -1.47499e-24)
(-0.0356316 -0.000213254 1.53377e-24)
(-0.0352794 -0.000266088 3.22819e-24)
(-0.0348531 -0.000319111 6.82937e-24)
(-0.0343535 -0.000372175 -1.60158e-24)
(-0.0337812 -0.000424835 -5.44566e-24)
(-0.0331369 -0.000476983 0)
(-0.0324219 -0.000528175 0)
(-0.0316378 -0.000577869 4.16056e-24)
(-0.0307869 -0.000625874 -4.16138e-24)
(-0.0298717 -0.000671802 0)
(-0.0288954 -0.000715389 4.54561e-24)
(-0.0278612 -0.000756385 8.425e-26)
(-0.0267734 -0.000794382 -9.39964e-24)
(-0.0256365 -0.000829078 0)
(-0.024455 -0.000859966 1.5011e-25)
(-0.0232351 -0.000886747 -2.2545e-23)
(-0.021982 -0.000909253 -5.05042e-24)
(-0.0207012 -0.000927035 -1.30083e-23)
(-0.0194001 -0.000940031 0)
(-0.018085 -0.000948086 -2.64232e-24)
(-0.0167632 -0.000950853 5.46289e-24)
(-0.0154416 -0.000948167 -5.46479e-24)
(-0.0141277 -0.000940071 5.51382e-24)
(-0.012829 -0.000926515 0)
(-0.011553 -0.000907334 0)
(-0.0103073 -0.000882658 0)
(-0.00909941 -0.000852391 -8.51993e-24)
(-0.0079368 -0.000816574 5.7022e-24)
(-0.00682698 -0.000775324 -2.82915e-24)
(-0.00577686 -0.00072869 0)
(-0.00479414 -0.000676839 0)
(-0.0038852 -0.000619731 5.66852e-24)
(-0.00305714 -0.00055765 -7.08985e-24)
(-0.00231596 -0.000490651 0)
(-0.00166769 -0.000419059 5.61251e-24)
(-0.00111762 -0.000343337 -1.12025e-23)
(-0.000669879 -0.000264231 4.19324e-24)
(-0.00032715 -0.000183119 -1.39032e-24)
(-8.95679e-05 -0.000102501 6.90253e-24)
(4.67247e-05 -2.68989e-05 -1.79418e-26)
(9.22435e-05 3.55896e-05 -4.13081e-24)
(7.03074e-05 7.05776e-05 0)
(1.61167e-05 5.31856e-05 0)
(1.35429e-05 -9.07609e-05 -3.58214e-27)
(3.58372e-05 -9.39035e-05 2.12478e-27)
(-1.26989e-05 1.18811e-05 0)
(-0.00016941 0.000175346 -5.98619e-27)
(-0.000458176 0.000365177 -1.84526e-26)
(-0.000888579 0.000562075 2.16731e-26)
(-0.00146148 0.00075447 -4.248e-26)
(-0.00217214 0.000935778 4.30288e-26)
(-0.0030124 0.0011026 -1.18107e-25)
(-0.00397219 0.00125352 1.8992e-25)
(-0.00504057 0.00138834 -8.61856e-26)
(-0.00620645 0.00150766 -9.48303e-26)
(-0.00745906 0.00161242 0)
(-0.00878821 0.00170382 -2.16019e-25)
(-0.0101844 0.00178309 -1.77315e-26)
(-0.0116389 0.00185149 2.14393e-25)
(-0.0131437 0.00191017 -2.09666e-25)
(-0.0146916 0.00196012 5.63943e-25)
(-0.0162761 0.00200224 -3.72993e-26)
(-0.0178912 0.00203733 -5.27375e-25)
(-0.0195309 0.00206585 3.76704e-25)
(-0.021191 0.00208855 -1.89845e-25)
(-0.0228656 0.00210549 -1.7043e-25)
(-0.0245507 0.00211698 5.88109e-26)
(-0.0262417 0.00212316 1.51835e-25)
(-0.027934 0.00212413 1.78084e-25)
(-0.0296233 0.00211983 1.08472e-26)
(-0.0313057 0.00211029 4.56072e-26)
(-0.0329762 0.00209538 -1.12427e-25)
(-0.0346301 0.00207481 0)
(-0.0362635 0.00204857 0)
(-0.0378714 0.00201669 0)
(-0.0394495 0.00197904 0)
(-0.0409928 0.00193555 -6.20527e-25)
(-0.0424967 0.00188613 8.33832e-25)
(-0.0439567 0.00183075 9.79584e-25)
(-0.0453679 0.00176937 -1.06609e-24)
(-0.0467257 0.00170207 1.23283e-24)
(-0.0480263 0.0016291 2.23729e-24)
(-0.0492644 0.00155048 -2.4181e-24)
(-0.0504361 0.00146627 0)
(-0.051537 0.00137684 -9.78224e-25)
(-0.052563 0.00128235 1.77737e-26)
(-0.0535105 0.00118247 3.62702e-24)
(-0.0543757 0.00107757 0)
(-0.0551545 0.000968157 1.45645e-24)
(-0.0558446 0.000854337 -7.80631e-25)
(-0.056442 0.000736255 0)
(-0.0569426 0.000614073 4.53416e-25)
(-0.0573455 0.00048788 0)
(-0.0576466 0.000357908 0)
(-0.0578434 0.000224611 1.73056e-24)
(-0.0579349 8.82994e-05 -2.28421e-24)
(-0.0579169 -5.09282e-05 2.48869e-24)
(-0.0577885 -0.000192729 -2.62781e-24)
(-0.0575491 -0.000336737 -2.77823e-24)
(-0.0571962 -0.000482633 -5.81831e-24)
(-0.0567292 -0.00062955 -9.16844e-24)
(-0.056148 -0.000776802 6.44684e-24)
(-0.0554521 -0.000924291 -6.62832e-24)
(-0.0546422 -0.00107135 3.49866e-24)
(-0.0537192 -0.00121701 -1.09243e-23)
(-0.0526844 -0.00136059 1.12009e-23)
(-0.051541 -0.00150131 7.77587e-24)
(-0.0502907 -0.00163814 8.04261e-24)
(-0.0489373 -0.00177014 8.46402e-24)
(-0.0474851 -0.00189643 -2.57403e-23)
(-0.0459387 -0.0020161 1.76783e-23)
(-0.0443037 -0.00212825 -8.96293e-24)
(-0.0425865 -0.00223195 2.80483e-23)
(-0.0407941 -0.00232631 -9.42256e-24)
(-0.0389343 -0.00241028 4.87356e-24)
(-0.0370147 -0.00248291 1.49094e-23)
(-0.0350446 -0.00254365 1.0175e-23)
(-0.0330339 -0.00259182 1.03479e-23)
(-0.030992 -0.00262667 0)
(-0.0289294 -0.00264771 -5.33179e-24)
(-0.0268568 -0.00265444 1.06631e-23)
(-0.0247854 -0.00264648 0)
(-0.0227259 -0.00262345 -5.49988e-24)
(-0.0206909 -0.00258553 -1.09864e-23)
(-0.0186908 -0.00253228 -5.56627e-24)
(-0.0167377 -0.00246387 1.11621e-23)
(-0.0148431 -0.00238032 -5.59572e-24)
(-0.0130184 -0.00228176 5.64729e-24)
(-0.0112746 -0.00216846 0)
(-0.00962287 -0.0020407 0)
(-0.00807387 -0.00189877 -5.62048e-24)
(-0.00663789 -0.00174315 0)
(-0.00532467 -0.00157439 0)
(-0.00414328 -0.00139326 -5.59614e-24)
(-0.00310205 -0.00120084 5.58142e-24)
(-0.00220785 -0.000998683 0)
(-0.001466 -0.000789378 -2.77301e-24)
(-0.000879207 -0.000576969 0)
(-0.000446494 -0.000368037 -1.38094e-24)
(-0.000161509 -0.000173359 -1.3732e-24)
(-9.93941e-06 -1.04292e-05 -5.48452e-24)
(3.53379e-05 9.23645e-05 6.84882e-24)
(1.29863e-05 8.80096e-05 -5.46354e-25)
(7.42471e-06 -0.0001004 2.37915e-27)
(-2.88077e-05 -4.5896e-05 5.07123e-27)
(-0.000181099 0.000169467 8.47037e-28)
(-0.000482284 0.000473456 0)
(-0.000953083 0.000820003 1.26963e-26)
(-0.00160255 0.00117912 -9.33763e-27)
(-0.00243116 0.00153176 2.33004e-26)
(-0.00343347 0.00186642 -1.09453e-25)
(-0.00460008 0.00217666 1.04079e-25)
(-0.00591929 0.00245941 -1.0869e-25)
(-0.00737819 0.00271383 -2.56872e-25)
(-0.00896342 0.00294044 1.35897e-25)
(-0.0106616 0.00314048 2.80529e-25)
(-0.0124603 0.00331601 2.97005e-25)
(-0.0143472 0.00346879 3.08039e-25)
(-0.0163115 0.00360115 -1.90856e-25)
(-0.0183424 0.00371479 3.43291e-25)
(-0.0204306 0.00381162 -4.15461e-25)
(-0.0225673 0.00389319 -3.66897e-25)
(-0.0247444 0.00396081 6.44949e-25)
(-0.0269542 0.00401563 -5.43699e-25)
(-0.0291897 0.00405848 0)
(-0.0314442 0.0040899 0)
(-0.0337111 0.00411043 -2.14641e-25)
(-0.0359842 0.00412031 -1.37027e-26)
(-0.0382574 0.0041197 0)
(-0.0405246 0.00410861 5.49462e-26)
(-0.0427793 0.0040868 2.20859e-25)
(-0.0450158 0.00405423 2.95026e-25)
(-0.0472276 0.00401078 9.39114e-25)
(-0.0494094 0.00395643 -7.54251e-25)
(-0.051554 0.00389084 -1.13816e-25)
(-0.0536555 0.00381391 5.43134e-25)
(-0.0557075 0.00372563 0)
(-0.0577038 0.00362594 9.52423e-25)
(-0.0596383 0.00351482 1.092e-24)
(-0.0615048 0.0033923 3.60978e-24)
(-0.0632972 0.00325868 -2.52267e-24)
(-0.0650097 0.00311414 2.23706e-25)
(-0.0666366 0.00295879 -1.69865e-24)
(-0.0681718 0.00279298 1.76211e-24)
(-0.0696113 0.00261716 2.02938e-24)
(-0.070948 0.00243146 -2.23481e-24)
(-0.0721779 0.00223624 -2.44824e-24)
(-0.0732967 0.00203201 0)
(-0.0742999 0.00181916 -1.44928e-24)
(-0.0751819 0.00159783 0)
(-0.0759393 0.00136855 0)
(-0.0765694 0.00113185 0)
(-0.0770663 0.000887995 0)
(-0.0774286 0.000637473 0)
(-0.0776533 0.000380771 0)
(-0.0777355 0.000118354 -4.7414e-24)
(-0.077675 -0.000149224 -2.61294e-24)
(-0.0774687 -0.000421235 1.03693e-23)
(-0.0771138 -0.000696825 5.48652e-24)
(-0.0766105 -0.000975356 -1.26466e-25)
(-0.0759578 -0.00125583 1.19891e-23)
(-0.075155 -0.00153713 -6.35405e-24)
(-0.0742011 -0.00181814 0)
(-0.0730989 -0.00209774 0)
(-0.0718488 -0.00237445 1.43386e-23)
(-0.0704532 -0.00264672 -1.50439e-23)
(-0.0689153 -0.00291315 -7.68651e-24)
(-0.0672388 -0.0031721 -3.17386e-23)
(-0.0654283 -0.00342172 0)
(-0.0634896 -0.00366033 8.5201e-24)
(-0.061429 -0.0038862 -1.73881e-23)
(-0.0592538 -0.00409761 -1.78579e-23)
(-0.0569724 -0.00429272 -2.75422e-23)
(-0.0545936 -0.00446981 0)
(-0.0521283 -0.00462744 -1.94201e-23)
(-0.0495864 -0.00476388 3.92311e-23)
(-0.0469799 -0.00487765 -2.98877e-23)
(-0.0443205 -0.00496732 1.00834e-23)
(-0.0416217 -0.00503194 0)
(-0.0388966 -0.00507049 -1.04287e-23)
(-0.0361593 -0.00508208 0)
(-0.0334239 -0.00506605 0)
(-0.0307051 -0.00502184 -2.16504e-23)
(-0.0280176 -0.0049492 2.18327e-23)
(-0.0253762 -0.00484803 0)
(-0.0227959 -0.00471827 5.92533e-26)
(-0.0202914 -0.00456013 -1.10853e-23)
(-0.0178774 -0.00437396 0)
(-0.0155678 -0.00416009 -1.11388e-23)
(-0.0133772 -0.00391945 0)
(-0.0113186 -0.00365251 -5.54923e-24)
(-0.00940525 -0.00336057 -1.11701e-23)
(-0.0076489 -0.00304469 1.08837e-26)
(-0.00606085 -0.00270671 1.11761e-23)
(-0.00465094 -0.00234903 -5.5749e-24)
(-0.00342724 -0.00197503 -5.55898e-24)
(-0.00239552 -0.00158974 2.77181e-24)
(-0.00155847 -0.00120076 5.50787e-24)
(-0.000914485 -0.000819647 -5.50917e-24)
(-0.00045617 -0.000464112 1.373e-24)
(-0.000168377 -0.000161234 -2.73537e-24)
(-2.57113e-05 4.7767e-05 -1.36723e-24)
(7.07097e-06 9.76747e-05 5.46354e-25)
(4.55227e-07 -7.18836e-05 0)
(-0.000106851 9.58311e-05 9.93226e-27)
(-0.000381912 0.000464698 -1.58477e-26)
(-0.000848818 0.000947396 -1.30581e-26)
(-0.00152125 0.00148593 0)
(-0.00240531 0.00204097 -1.39637e-26)
(-0.00349965 0.00258649 2.86449e-26)
(-0.00479744 0.00310606 6.60872e-26)
(-0.006288 0.00359003 0)
(-0.00795819 0.00403339 7.86541e-26)
(-0.00979357 0.00443437 0)
(-0.0117791 0.00479324 0)
(-0.0138996 0.00511165 -5.39536e-25)
(-0.0161405 0.00539185 -3.73812e-26)
(-0.0184878 0.00563675 -3.07567e-25)
(-0.0209282 0.0058492 -2.51751e-25)
(-0.0234495 0.00603202 -2.75174e-25)
(-0.02604 0.00618781 -2.71401e-25)
(-0.0286891 0.00631884 0)
(-0.0313864 0.00642697 0)
(-0.0341232 0.00651422 -1.42634e-25)
(-0.0368897 0.00658142 3.89306e-25)
(-0.039678 0.00662976 -2.30844e-25)
(-0.0424795 0.00665996 2.23688e-25)
(-0.0452865 0.00667241 1.47985e-26)
(-0.0480909 0.00666737 0)
(-0.050885 0.00664477 -5.50627e-25)
(-0.0536612 0.00660459 6.45325e-25)
(-0.0564116 0.00654674 -4.28994e-25)
(-0.0591284 0.00647112 -1.34718e-24)
(-0.061804 0.00637748 -1.91415e-24)
(-0.0644306 0.00626551 9.83008e-25)
(-0.0670004 0.00613512 -1.37031e-24)
(-0.0695056 0.00598637 0)
(-0.0719387 0.00581927 2.0722e-24)
(-0.074292 0.00563385 -1.87605e-24)
(-0.076558 0.00543031 -2.35943e-24)
(-0.07873 0.00520914 1.23192e-24)
(-0.0808003 0.0049705 -6.13425e-26)
(-0.0827623 0.00471481 3.43376e-24)
(-0.0846093 0.00444274 0)
(-0.0863347 0.0041547 -1.08753e-24)
(-0.0879335 0.00385132 1.08721e-24)
(-0.0893988 0.00353328 -1.29413e-24)
(-0.0907258 0.00320116 1.29383e-24)
(-0.0919082 0.00285537 0)
(-0.0929424 0.00249676 0)
(-0.093824 0.00212601 0)
(-0.0945468 0.00174359 0)
(-0.0951087 0.00135047 0)
(-0.095505 0.000947353 0)
(-0.0957322 0.000534698 0)
(-0.0957884 0.000113424 2.32506e-24)
(-0.0956687 -0.000315365 0)
(-0.0953729 -0.000750732 -5.04102e-24)
(-0.094899 -0.00119141 -7.98326e-24)
(-0.0942441 -0.00163597 -2.79324e-24)
(-0.0934086 -0.0020831 0)
(-0.0923919 -0.00253123 6.09637e-24)
(-0.0911952 -0.0029784 1.94582e-23)
(-0.089819 -0.00342263 -1.35912e-23)
(-0.0882656 -0.00386193 7.01681e-24)
(-0.0865379 -0.00429378 7.48786e-24)
(-0.0846394 -0.0047158 -7.38098e-24)
(-0.0825758 -0.00512563 -1.58976e-23)
(-0.080352 -0.00552041 1.60205e-23)
(-0.0779751 -0.00589744 -1.67069e-23)
(-0.075453 -0.00625405 1.73182e-23)
(-0.0727945 -0.00658748 1.77877e-23)
(-0.0700095 -0.0068949 1.82393e-23)
(-0.0671093 -0.00717362 0)
(-0.0641056 -0.00742122 0)
(-0.0610115 -0.00763538 2.45923e-25)
(-0.0578406 -0.00781374 -1.95854e-23)
(-0.0546078 -0.0079542 0)
(-0.0513283 -0.00805491 2.05592e-23)
(-0.048018 -0.00811444 1.066e-23)
(-0.0446937 -0.00813145 -4.17653e-23)
(-0.041372 -0.00810496 0)
(-0.0380705 -0.00803419 4.28799e-23)
(-0.0348063 -0.00791845 8.23956e-27)
(-0.0315976 -0.00775805 0)
(-0.0284613 -0.00755262 1.43576e-26)
(-0.0254154 -0.00730266 1.09902e-23)
(-0.0224767 -0.00700879 1.10252e-23)
(-0.0196621 -0.00667186 2.74033e-26)
(-0.0169881 -0.00629298 3.32894e-23)
(-0.0144703 -0.00587362 3.11518e-26)
(-0.0121234 -0.00541544 5.57356e-24)
(-0.00996146 -0.00492093 0)
(-0.00799705 -0.00439313 0)
(-0.00624115 -0.00383609 1.10781e-23)
(-0.00470265 -0.00325545 -1.38872e-27)
(-0.00338787 -0.00265918 5.52038e-24)
(-0.00229973 -0.00205873 0)
(-0.0014368 -0.00147065 -5.47323e-24)
(-0.000792296 -0.000919387 2.74442e-24)
(-0.000352537 -0.000440113 6.82593e-24)
(-9.75695e-05 -8.40196e-05 0)
(5.23687e-07 7.15782e-05 0)
(-6.59404e-06 -1.22645e-06 -1.55615e-26)
(-0.000189909 0.000341932 -1.2414e-27)
(-0.000596988 0.000912035 0)
(-0.00124094 0.00161243 1.30546e-26)
(-0.002126 0.00237656 0)
(-0.0032535 0.00315777 0)
(-0.004619 0.00392422 1.04099e-26)
(-0.00621344 0.00465515 -2.81886e-26)
(-0.00802443 0.00533788 -3.3171e-26)
(-0.0100374 0.00596552 4.2338e-26)
(-0.0122364 0.00653521 0)
(-0.0146051 0.00704695 1.62004e-25)
(-0.0171268 0.00750253 0)
(-0.0197854 0.00790481 0)
(-0.0225652 0.00825728 4.43253e-25)
(-0.0254511 0.00856344 -1.91592e-25)
(-0.0284296 0.00882732 6.23164e-25)
(-0.0314869 0.00905189 5.84991e-25)
(-0.0346107 0.0092404 -4.05353e-25)
(-0.0377896 0.00939574 -3.22361e-25)
(-0.0410119 0.00951966 5.97414e-26)
(-0.0442674 0.00961413 2.62125e-25)
(-0.0475457 0.00968055 -1.04055e-25)
(-0.0508369 0.00971983 -2.2076e-26)
(-0.0541314 0.00973261 -1.16831e-25)
(-0.05742 0.00971923 -1.10885e-25)
(-0.0606925 0.00967957 6.13946e-25)
(-0.0639408 0.00961405 -7.62765e-25)
(-0.0671548 0.00952229 -6.99692e-25)
(-0.0703257 0.00940418 1.43143e-24)
(-0.0734435 0.00925937 9.27227e-25)
(-0.0764999 0.00908785 -1.30287e-24)
(-0.0794852 0.00888949 2.66722e-24)
(-0.0823911 0.00866451 -1.78515e-24)
(-0.085208 0.00841281 -8.45706e-26)
(-0.0879275 0.00813469 -2.14518e-24)
(-0.090541 0.00783064 0)
(-0.09304 0.00750113 5.75712e-24)
(-0.0954167 0.00714663 1.842e-25)
(-0.0976632 0.00676796 -3.41962e-24)
(-0.0997729 0.00636615 3.82174e-24)
(-0.101738 0.00594184 0)
(-0.103552 0.00549583 0)
(-0.105208 0.00502911 -7.57065e-24)
(-0.106701 0.00454264 2.59114e-24)
(-0.108025 0.00403751 4.42625e-24)
(-0.109174 0.00351462 -4.64857e-24)
(-0.110144 0.00297474 1.68251e-24)
(-0.110931 0.00241895 0)
(-0.11153 0.00184836 0)
(-0.111937 0.00126397 0)
(-0.112148 0.000666808 0)
(-0.11216 5.80577e-05 0)
(-0.111972 -0.000560782 0)
(-0.111579 -0.00118815 5.14578e-24)
(-0.110981 -0.00182255 5.3838e-24)
(-0.110177 -0.0024621 1.1301e-23)
(-0.109166 -0.00310459 0)
(-0.107947 -0.00374764 -1.24531e-23)
(-0.106522 -0.00438865 -2.59067e-23)
(-0.104892 -0.0050249 1.35362e-23)
(-0.10306 -0.00565355 -2.83595e-23)
(-0.101029 -0.00627112 -5.19531e-25)
(-0.0988048 -0.00687407 4.49689e-23)
(-0.0963916 -0.00745896 3.14793e-23)
(-0.0937965 -0.00802207 1.65231e-23)
(-0.0910277 -0.00855946 -3.30377e-23)
(-0.0880938 -0.00906725 1.68254e-23)
(-0.0850057 -0.00954178 -1.74614e-23)
(-0.0817741 -0.00997901 0)
(-0.0784121 -0.0103753 -1.8333e-23)
(-0.0749326 -0.0107268 1.8989e-23)
(-0.071351 -0.0110304 2.56146e-25)
(-0.0676825 -0.0112829 -1.97187e-23)
(-0.0639445 -0.0114817 1.9736e-23)
(-0.0601534 -0.0116238 0)
(-0.0563279 -0.0117071 -2.04488e-23)
(-0.0524866 -0.01173 2.0851e-23)
(-0.0486485 -0.0116911 -2.09622e-23)
(-0.0448332 -0.0115893 -2.13097e-23)
(-0.0410606 -0.0114239 -1.07505e-23)
(-0.0373501 -0.0111946 0)
(-0.033722 -0.0109019 0)
(-0.0301956 -0.0105463 -1.09465e-23)
(-0.0267899 -0.0101283 2.19267e-23)
(-0.0235244 -0.0096499 -2.19956e-23)
(-0.0204166 -0.00911234 -1.10625e-23)
(-0.0174842 -0.00851811 1.10476e-23)
(-0.0147437 -0.00787001 -1.1057e-23)
(-0.0122102 -0.00717162 0)
(-0.00989752 -0.00642757 0)
(-0.00781759 -0.0056439 5.48865e-24)
(-0.00598009 -0.0048287 -2.20251e-23)
(-0.004392 -0.00399292 1.09631e-23)
(-0.00305701 -0.00315191 -5.48452e-24)
(-0.00197487 -0.00232698 -5.95015e-28)
(-0.00114051 -0.00154796 8.69729e-27)
(-0.000543521 -0.000856332 0)
(-0.000171552 -0.000310134 0)
(-5.85125e-06 7.15367e-06 0)
(-1.3347e-05 0.000112337 -2.58958e-26)
(-0.000273281 0.00069614 2.07015e-26)
(-0.000815122 0.00151766 0)
(-0.00164017 0.00247569 0)
(-0.002742 0.00349838 0)
(-0.00411595 0.00453404 0)
(-0.00575346 0.0055465 -1.66061e-26)
(-0.00764244 0.00651157 5.38489e-26)
(-0.00976838 0.00741409 -1.94674e-25)
(-0.0121149 0.00824553 -1.08987e-25)
(-0.0146648 0.00900217 1.08898e-25)
(-0.0174001 0.00968369 -1.61786e-25)
(-0.0203031 0.010292 0)
(-0.0233561 0.0108302 -1.91672e-25)
(-0.0265423 0.0113027 3.37974e-25)
(-0.0298451 0.0117138 3.40173e-25)
(-0.0332493 0.0120679 -5.33038e-25)
(-0.0367402 0.0123694 -6.38801e-25)
(-0.0403035 0.0126217 2.62602e-25)
(-0.0439261 0.0128284 -6.53749e-26)
(-0.0475953 0.0129922 0)
(-0.0512991 0.0131153 -8.1847e-26)
(-0.0550255 0.0131995 7.96845e-26)
(-0.058763 0.0132461 1.02629e-25)
(-0.0625007 0.0132557 1.10371e-25)
(-0.0662276 0.013229 6.49808e-25)
(-0.0699329 0.0131661 -3.33542e-25)
(-0.0736053 0.013067 0)
(-0.0772343 0.0129317 7.88718e-25)
(-0.0808101 0.0127602 1.81467e-25)
(-0.0843212 0.0125521 -2.13418e-24)
(-0.0877575 0.0123076 1.16449e-24)
(-0.0911085 0.0120266 1.60398e-24)
(-0.0943642 0.0117092 -3.44985e-24)
(-0.0975145 0.0113557 1.84579e-24)
(-0.10055 0.0109667 -1.24708e-25)
(-0.103461 0.0105428 2.24477e-24)
(-0.106238 0.0100849 5.69136e-24)
(-0.108873 0.00959378 -6.09903e-24)
(-0.111357 0.00907087 -3.4794e-24)
(-0.113683 0.00851706 1.98782e-25)
(-0.115842 0.00793356 3.74774e-25)
(-0.117829 0.00732172 -4.37742e-24)
(-0.119636 0.00668293 4.95939e-24)
(-0.121256 0.00601849 2.79538e-24)
(-0.122685 0.00532984 -7.20294e-24)
(-0.123917 0.00461819 4.6295e-24)
(-0.124947 0.00388475 -1.6761e-24)
(-0.12577 0.00313099 -1.78615e-24)
(-0.126382 0.00235821 0)
(-0.12678 0.00156775 0)
(-0.126958 0.000761288 0)
(-0.126916 -5.95948e-05 0)
(-0.126649 -0.00089319 -2.47798e-24)
(-0.126156 -0.00173735 7.69468e-24)
(-0.125436 -0.00258993 -1.05806e-23)
(-0.124486 -0.00344859 -7.47787e-26)
(-0.123307 -0.0043104 -1.20206e-23)
(-0.121899 -0.00517227 -5.30168e-25)
(-0.120263 -0.00603077 2.54171e-23)
(-0.118401 -0.00688212 1.33022e-23)
(-0.116317 -0.00772236 0)
(-0.114013 -0.00854744 1.46538e-23)
(-0.111496 -0.00935256 -1.44623e-23)
(-0.108771 -0.010133 -1.54703e-23)
(-0.105846 -0.010884 1.55654e-23)
(-0.102729 -0.0116002 -1.7411e-25)
(-0.0994319 -0.0122765 1.63701e-23)
(-0.0959644 -0.0129079 3.45168e-23)
(-0.0923396 -0.0134895 -1.79897e-23)
(-0.0885711 -0.0140163 5.44267e-23)
(-0.084674 -0.0144835 0)
(-0.0806648 -0.0148868 0)
(-0.0765605 -0.015222 -1.95313e-23)
(-0.0723788 -0.0154851 1.93438e-23)
(-0.0681394 -0.015673 -2.02649e-23)
(-0.0638621 -0.0157829 8.13089e-23)
(-0.0595672 -0.0158124 7.12591e-26)
(-0.0552757 -0.0157596 2.09071e-23)
(-0.0510088 -0.0156233 -2.11547e-23)
(-0.0467884 -0.0154027 2.11778e-23)
(-0.0426359 -0.0150976 -4.28845e-23)
(-0.0385729 -0.0147083 -1.40592e-26)
(-0.0346205 -0.0142355 0)
(-0.0307998 -0.0136807 2.18327e-23)
(-0.0271314 -0.0130459 -4.37537e-23)
(-0.0236345 -0.0123335 2.19222e-23)
(-0.0203282 -0.0115469 1.09868e-23)
(-0.0172301 -0.0106898 -2.1976e-23)
(-0.0143565 -0.00976734 1.09798e-23)
(-0.0117223 -0.00878597 1.09741e-23)
(-0.00934019 -0.00775374 0)
(-0.00722068 -0.00668106 -5.45437e-24)
(-0.00537198 -0.00558225 -1.72955e-26)
(-0.00379884 -0.00447575 -5.46394e-24)
(-0.00250296 -0.00338698 -5.45048e-24)
(-0.00148199 -0.00235 8.13401e-24)
(-0.00072995 -0.00141065 0)
(-0.000242868 -0.0006305 1.34523e-24)
(-1.1669e-05 -9.48157e-05 0)
(-1.96528e-05 0.000267942 2.58951e-26)
(-0.00035436 0.00115803 6.61923e-26)
(-0.00102943 0.00228214 0)
(-0.00203442 0.00353824 -6.28747e-26)
(-0.00335183 0.00485211 6.28334e-26)
(-0.00497033 0.00616924 0)
(-0.00687648 0.00745074 4.71085e-26)
(-0.00905461 0.00867011 0)
(-0.0114875 0.00981042 1.26457e-25)
(-0.014157 0.010862 -5.01278e-26)
(-0.0170439 0.0118206 -7.15839e-26)
(-0.0201292 0.0126853 0)
(-0.0233936 0.0134585 -1.22303e-25)
(-0.0268189 0.0141441 -2.41907e-26)
(-0.0303861 0.0147464 0)
(-0.0340783 0.0152709 -2.27356e-25)
(-0.0378783 0.0157224 -2.38497e-25)
(-0.0417703 0.0161061 2.97674e-25)
(-0.0457392 0.0164268 5.03314e-26)
(-0.0497698 0.0166879 -3.21967e-25)
(-0.0538484 0.0168929 5.95563e-26)
(-0.0579614 0.0170446 6.57009e-26)
(-0.0620956 0.0171451 -6.02892e-28)
(-0.0662377 0.0171957 0)
(-0.0703757 0.0171976 2.63776e-25)
(-0.074497 0.0171515 -3.0769e-25)
(-0.0785893 0.0170577 5.45142e-25)
(-0.0826409 0.0169165 -1.23708e-24)
(-0.0866388 0.0167277 -1.62051e-25)
(-0.090572 0.0164912 7.81414e-25)
(-0.0944285 0.0162072 1.02891e-24)
(-0.0981966 0.0158756 -1.42622e-24)
(-0.101865 0.0154968 4.51573e-24)
(-0.105422 0.015071 -1.88438e-24)
(-0.108858 0.0145988 1.88301e-24)
(-0.112161 0.014081 -4.65547e-24)
(-0.115322 0.0135188 -2.52526e-24)
(-0.118331 0.0129132 -8.50863e-24)
(-0.121179 0.012266 -3.19424e-25)
(-0.123856 0.0115781 6.77619e-24)
(-0.126355 0.0108515 -7.8024e-24)
(-0.128668 0.010088 3.99384e-24)
(-0.130787 0.00928925 0)
(-0.132707 0.00845701 2.57012e-24)
(-0.134421 0.00759321 -2.56969e-24)
(-0.135923 0.00669965 0)
(-0.137207 0.00577772 -3.08533e-24)
(-0.13827 0.00482927 0)
(-0.139106 0.00385615 5.38237e-24)
(-0.139712 0.00286005 -8.91566e-25)
(-0.140083 0.00184263 1.00278e-24)
(-0.140218 0.000806007 0)
(-0.140111 -0.000247978 0)
(-0.139762 -0.00131708 0)
(-0.139168 -0.00239859 0)
(-0.138327 -0.00348973 -1.59656e-23)
(-0.13724 -0.00458761 -5.41669e-24)
(-0.135905 -0.00568868 -1.13701e-23)
(-0.134323 -0.00678896 0)
(-0.132496 -0.0078842 0)
(-0.130425 -0.00896977 -1.32566e-23)
(-0.128115 -0.0100406 2.76667e-23)
(-0.125568 -0.0110911 -2.84934e-23)
(-0.122792 -0.0121158 1.01339e-25)
(-0.119792 -0.0131087 -3.03326e-23)
(-0.116577 -0.0140636 -3.18079e-23)
(-0.113157 -0.014974 -4.67152e-25)
(-0.109542 -0.0158334 -1.66691e-23)
(-0.105743 -0.0166354 -5.11817e-23)
(-0.101776 -0.0173738 0)
(-0.0976534 -0.0180424 -1.78459e-23)
(-0.0933929 -0.0186352 -3.68792e-23)
(-0.0890111 -0.0191463 3.74265e-23)
(-0.0845266 -0.0195709 0)
(-0.0799591 -0.0199045 -1.06421e-25)
(-0.0753289 -0.0201425 5.9738e-23)
(-0.0706575 -0.0202815 -4.0243e-23)
(-0.0659667 -0.0203185 -4.10418e-23)
(-0.0612785 -0.0202512 4.1216e-23)
(-0.0566162 -0.0200781 2.08684e-23)
(-0.0520028 -0.0197984 2.10706e-23)
(-0.0474613 -0.0194117 2.13386e-23)
(-0.0430145 -0.0189184 8.7775e-26)
(-0.0386854 -0.0183202 2.16094e-23)
(-0.0344962 -0.0176186 -4.33405e-23)
(-0.0304684 -0.016816 2.17301e-23)
(-0.026623 -0.0159161 1.0915e-23)
(-0.0229796 -0.0149229 -1.09275e-23)
(-0.0195573 -0.013842 2.18918e-23)
(-0.0163734 -0.0126799 -1.09662e-23)
(-0.0134433 -0.0114443 1.09016e-23)
(-0.0107809 -0.0101456 1.08952e-23)
(-0.00839792 -0.00879693 1.09066e-23)
(-0.00630354 -0.00741473 -5.43972e-24)
(-0.00450444 -0.0060208 1.65494e-26)
(-0.0030047 -0.00464354 0)
(-0.00180532 -0.00331987 -1.88948e-26)
(-0.00090524 -0.0020981 2.68865e-24)
(-0.000309041 -0.00104093 -1.34508e-24)
(-1.67873e-05 -0.000231948 0)
(-2.54669e-05 0.000463812 3.16926e-26)
(-0.000431691 0.00172455 -1.05797e-25)
(-0.00123565 0.00320218 -5.17728e-26)
(-0.00241573 0.00479669 5.17369e-26)
(-0.00394348 0.00643395 0)
(-0.00580062 0.00805864 -3.14561e-26)
(-0.00796837 0.00963072 -1.15676e-25)
(-0.0104271 0.0111226 3.16318e-26)
(-0.0131566 0.0125164 -6.20239e-28)
(-0.0161362 0.0138019 7.02726e-26)
(-0.0193452 0.0149744 -2.12242e-26)
(-0.0227631 0.0160336 1.61478e-25)
(-0.0263692 0.0169815 1.71997e-25)
(-0.0301437 0.0178224 -3.4853e-25)
(-0.0340675 0.0185621 0)
(-0.0381218 0.0192061 3.93692e-26)
(-0.0422886 0.0197602 1.87315e-25)
(-0.0465508 0.0202302 -2.76981e-25)
(-0.0508918 0.0206213 3.05916e-25)
(-0.055296 0.0209381 -1.04924e-25)
(-0.0597475 0.0211841 6.23071e-27)
(-0.0642319 0.0213627 1.37005e-27)
(-0.0687344 0.0214764 -2.23944e-26)
(-0.073241 0.0215269 3.65637e-25)
(-0.0777376 0.0215156 8.53152e-26)
(-0.0822109 0.0214432 1.17132e-25)
(-0.0866471 0.0213104 -4.64614e-25)
(-0.0910325 0.021117 -7.37583e-25)
(-0.0953547 0.0208638 7.36872e-25)
(-0.0995996 0.0205504 -9.55068e-25)
(-0.103755 0.0201774 -3.56579e-24)
(-0.107809 0.0197447 2.69891e-24)
(-0.111748 0.019253 -4.52928e-24)
(-0.115561 0.0187028 1.89613e-24)
(-0.119236 0.0180952 2.12298e-24)
(-0.122762 0.0174315 0)
(-0.126128 0.0167129 7.75991e-24)
(-0.129324 0.0159416 -2.6827e-24)
(-0.132341 0.0151188 2.9369e-24)
(-0.135169 0.0142473 3.28929e-24)
(-0.137801 0.0133291 3.79411e-24)
(-0.140228 0.0123663 4.32193e-24)
(-0.142445 0.0113614 1.58476e-25)
(-0.144443 0.0103168 4.86025e-24)
(-0.146218 0.00923485 -5.49372e-24)
(-0.147763 0.00811733 2.78253e-24)